LAMMPS (23 Jun 2022)
KOKKOS mode is enabled (src/KOKKOS/kokkos.cpp:105)
  will use up to 4 GPU(s) per node
  using 1 OpenMP thread(s) per MPI task
package kokkos
package kokkos neigh half newton off
#LAMMPS input file

# ------------------------ INITIALIZATION ----------------------------
processors    * * *
units         metal
dimension    3
boundary    p    p    p
atom_style   charge
atom_modify map array sort 0 1

#--------------------------- LAMMPS Data File--------------------------

read_data    relaxed_step.lmp #reset_relaxed.lmp # model_4.lmp # pre_strained.lmp # High_sep_Cu_45.lmp # Cu_111_FR_45_MIN.lmp
Reading data file ...
  orthogonal box = (-314.8477 -522.43942 600) to (1109.3869 540.14923 1100)
  4 by 4 by 2 MPI processor grid
  reading atoms ...
  37948320 atoms
  reading velocities ...
  37948320 velocities
  read_data CPU = 134.211 seconds
#read_dump   dump.min_1862000.lammpstrj 1862000 x y z vx vy vz
variable  temp equal 500
variable  temp_init equal ${temp}*2
variable  temp_init equal 500*2
variable  sratex equal 5e-6 # in 1/ps (0.5 strain after 10ns)
# ------------------------ FORCE FIELDS ------------------------------
pair_style    eam/alloy
pair_coeff    * * Cu01.eam.alloy.txt Cu # Cu

#------------------------- SETTINGS ---------------------------------

#change_box        all x scale 1.015 remap units box

compute csym all centro/atom fcc
#compute peratom all pe/atom

# compute stresses
#compute       sf all stress/atom NULL

#-------------For Lorentz Forces from QEq----------------------------
# Apply forces
#variable qfx atomfile input_fx_new.txt
#variable qfy atomfile input_fy_new.txt
#variable qfz atomfile input_fz_new.txt
#variable qe atom  -(x*v_qfx+y*v_qfy+z*v_qfz)

#fix force_q1 all addforce v_qfx v_qfy v_qfz energy v_qe
#fix_modify force_q1 energy yes

#delete_atoms group exclude
#fix freez hold setforce 0 0 0
#fix_modify force_q2 energy yes
thermo 1000
thermo_style custom step temp pe press lx
thermo_modify flush yes
#min_style fire
#minimize 0.0 1e-4 100000 100000
#--------Thermal Relax---------------------------
velocity all create ${temp_init} 100 rot no dist gaussian
velocity all create 1000 100 rot no dist gaussian
timestep  0.002
fix 1 all langevin ${temp} ${temp} 5 100
fix 1 all langevin 500 ${temp} 5 100
fix 1 all langevin 500 500 5 100
fix ensemble all nve
run 50000
Neighbor list info ...
  update every 1 steps, delay 10 steps, check yes
  max neighbors/atom: 2000, page size: 100000
  master list distance cutoff = 7.506786
  ghost atom cutoff = 7.506786
  binsize = 7.506786, bins = 190 142 67
  2 neighbor lists, perpetual/occasional/extra = 1 1 0
  (1) pair eam/alloy/kk, perpetual
      attributes: half, newton off, kokkos_device
      pair build: half/bin/kk/device
      stencil: full/bin/3d
      bin: kk/device
  (2) compute centro/atom, occasional
      attributes: full, newton off
      pair build: full/bin/atomonly
      stencil: full/bin/3d
      bin: standard
Per MPI rank memory allocation (min/avg/max) = 419 | 460.3 | 502.1 Mbytes
   Step          Temp          PotEng         Press            Lx      
         0   1000          -1.3404495e+08  6581.1843      1424.2346    
      1000   500.3956      -1.315973e+08   10992.369      1424.2346    
      2000   494.94479     -1.3156553e+08  4411.7979      1424.2346    
      3000   488.32945     -1.31499e+08   -972.46293      1424.2346    
      4000   495.01691     -1.314962e+08   847.49012      1424.2346    
      5000   500.6466      -1.315165e+08   3833.7431      1424.2346    
      6000   502.47487     -1.3153173e+08  6572.7555      1424.2346    
      7000   501.3848      -1.315352e+08   6627.1028      1424.2346    
      8000   499.72074     -1.3152889e+08  5053.6499      1424.2346    
      9000   498.09223     -1.315169e+08   3519.2066      1424.2346    
     10000   498.11401     -1.3150785e+08  2934.392       1424.2346    
     11000   499.52514     -1.3151093e+08  3715.1197      1424.2346    
     12000   500.5884      -1.3151669e+08  4557.7885      1424.2346    
     13000   501.05943     -1.3152231e+08  5219.2109      1424.2346    
     14000   500.44025     -1.3152173e+08  4924.6435      1424.2346    
     15000   499.96984     -1.3151992e+08  4534.6948      1424.2346    
     16000   499.58309     -1.315165e+08   4128.7156      1424.2346    
     17000   499.7992      -1.3151621e+08  4215.381       1424.2346    
     18000   500.04968     -1.3151715e+08  4396.8866      1424.2346    
     19000   500.26541     -1.3151811e+08  4603.8612      1424.2346    
     20000   500.24024     -1.3151901e+08  4629.2871      1424.2346    
     21000   500.08262     -1.3151865e+08  4538.3199      1424.2346    
     22000   500.02481     -1.3151843e+08  4421.0089      1424.2346    
     23000   499.91187     -1.3151749e+08  4373.4027      1424.2346    
     24000   500.03712     -1.3151696e+08  4387.7132      1424.2346    
     25000   500.0665      -1.3151722e+08  4438.8119      1424.2346    
     26000   500.08577     -1.3151819e+08  4470.9937      1424.2346    
     27000   500.00389     -1.315186e+08   4469.2759      1424.2346    
     28000   499.95067     -1.3151833e+08  4458.06        1424.2346    
     29000   500.02261     -1.3151788e+08  4439.1399      1424.2346    
     30000   500.03088     -1.3151801e+08  4448.3653      1424.2346    
     31000   500.06778     -1.3151791e+08  4446.323       1424.2346    
     32000   499.98886     -1.3151765e+08  4461.2462      1424.2346    
     33000   499.98587     -1.3151827e+08  4446.5276      1424.2346    
     34000   499.86112     -1.3151784e+08  4452.4191      1424.2346    
     35000   499.99229     -1.3151844e+08  4455.2281      1424.2346    
     36000   499.9339      -1.3151786e+08  4451.1471      1424.2346    
     37000   499.92154     -1.3151784e+08  4456.569       1424.2346    
     38000   499.99777     -1.3151832e+08  4463.7023      1424.2346    
     39000   500.06018     -1.3151853e+08  4463.2103      1424.2346    
     40000   500.0418      -1.3151834e+08  4456.5052      1424.2346    
     41000   499.99496     -1.3151802e+08  4454.6609      1424.2346    
     42000   500.05812     -1.3151776e+08  4448.4413      1424.2346    
     43000   500.03802     -1.315179e+08   4454.3123      1424.2346    
     44000   500.06916     -1.3151794e+08  4459.2719      1424.2346    
     45000   500.01141     -1.315177e+08   4462.6897      1424.2346    
     46000   500.04942     -1.3151781e+08  4448.5176      1424.2346    
     47000   500.0945      -1.3151815e+08  4448.0178      1424.2346    
     48000   500.04735     -1.3151827e+08  4440.2499      1424.2346    
     49000   500.01257     -1.315185e+08   4445.8374      1424.2346    
     50000   499.91416     -1.3151787e+08  4463.5433      1424.2346    
Loop time of 715.477 on 32 procs for 50000 steps with 37948320 atoms

Performance: 12.076 ns/day, 1.987 hours/ns, 69.883 timesteps/s
72.9% CPU use with 32 MPI tasks x 1 OpenMP threads

MPI task timing breakdown:
Section |  min time  |  avg time  |  max time  |%varavg| %total
---------------------------------------------------------------
Pair    | 237.61     | 257.74     | 282        |  83.4 | 36.02
Neigh   | 32.422     | 55.307     | 74.48      | 170.9 |  7.73
Comm    | 44.842     | 60.719     | 77.545     | 188.2 |  8.49
Output  | 0.015804   | 0.56502    | 1.0417     |  47.0 |  0.08
Modify  | 194.13     | 271.86     | 345.62     | 430.4 | 38.00
Other   |            | 69.28      |            |       |  9.68

Nlocal:    1.18588e+06 ave 1.50407e+06 max      856516 min
Histogram: 16 0 0 0 0 0 0 0 0 16
Nghost:         184804 ave      216942 max      151886 min
Histogram: 16 0 0 0 0 0 0 0 0 16
Neighs:    8.61521e+07 ave  1.0927e+08 max  6.2231e+07 min
Histogram: 16 0 0 0 0 0 0 0 0 16
FullNghs:            0 ave           0 max           0 min
Histogram: 32 0 0 0 0 0 0 0 0 0

Total # of neighbors = 2.7568683e+09
Ave neighs/atom = 72.647966
Neighbor list builds = 1190
Dangerous builds = 0
unfix ensemble
write_data ${temp}_relaxed_config.lmp
write_data 500_relaxed_config.lmp
System init for write_data ...
#unfix freez
######################################
## NVT Langevin ##
#variable a loop 50
#label loop

#variable Ti equal ${temp}+($a-1)*4
#variable Tf equal ${temp}+$a*4
#reset_ids
#change_box all x scale ${eps} remap units box
fix        2 all deform 1 x erate ${sratex} units box remap x
fix        2 all deform 1 x erate 5e-06 units box remap x
#fix 1 all langevin ${temp} ${temp} 5 98

# Write dump file
#dump        shear all custom 500000 dump.min_*.lammpstrj id x y z # vx vy vz

#dump        defect all custom 100 dump.defect_*.lammpstrj id x y z c_csym
#dump_modify defect thresh c_csym <= 10 thresh c_csym > 4

fix         ensemble all nve
run 5000000
Per MPI rank memory allocation (min/avg/max) = 418.9 | 460.1 | 501.9 Mbytes
   Step          Temp          PotEng         Press            Lx      
     50000   499.91416     -1.3151787e+08  4463.5433      1424.2346    
     51000   499.90266     -1.3151906e+08  4444.1145      1424.2488    
     52000   499.96552     -1.3151907e+08  4438.2594      1424.2631    
     53000   499.86561     -1.3151895e+08  4437.5883      1424.2773    
     54000   499.7924      -1.3151868e+08  4447.1364      1424.2915    
     55000   499.9222      -1.3151878e+08  4435.9995      1424.3058    
     56000   499.87936     -1.3151851e+08  4434.9238      1424.32      
     57000   499.89437     -1.3151796e+08  4430.781       1424.3343    
     58000   500.0404      -1.3151835e+08  4429.2261      1424.3485    
     59000   500.09199     -1.3151854e+08  4417.4944      1424.3628    
     60000   500.06334     -1.3151813e+08  4421.5814      1424.377     
     61000   499.96868     -1.3151743e+08  4425.2535      1424.3912    
     62000   500.0582      -1.3151726e+08  4431.5905      1424.4055    
     63000   499.96922     -1.3151715e+08  4414.8143      1424.4197    
     64000   499.997       -1.3151782e+08  4405.8046      1424.434     
     65000   500.03816     -1.3151845e+08  4400.8971      1424.4482    
     66000   500.01091     -1.3151843e+08  4410.3359      1424.4625    
     67000   500.13584     -1.3151842e+08  4406.7812      1424.4767    
     68000   499.92026     -1.3151741e+08  4413.6911      1424.4909    
     69000   500.14038     -1.3151837e+08  4381.5835      1424.5052    
     70000   500.06726     -1.3151731e+08  4400.0513      1424.5194    
     71000   500.13022     -1.3151826e+08  4398.3455      1424.5337    
     72000   499.98331     -1.3151832e+08  4405.4785      1424.5479    
     73000   499.95566     -1.3151864e+08  4391.0463      1424.5622    
     74000   500.06174     -1.3151823e+08  4388.9179      1424.5764    
     75000   500.05011     -1.315177e+08   4361.9311      1424.5906    
     76000   500.03963     -1.3151781e+08  4366.0929      1424.6049    
     77000   499.97131     -1.3151802e+08  4366.0131      1424.6191    
     78000   499.96624     -1.3151794e+08  4374.157       1424.6334    
     79000   500.06226     -1.3151846e+08  4391.532       1424.6476    
     80000   500.03878     -1.3151828e+08  4374.0118      1424.6618    
     81000   500.05312     -1.3151811e+08  4360.1841      1424.6761    
     82000   499.9974      -1.3151792e+08  4338.2618      1424.6903    
     83000   499.92317     -1.3151799e+08  4344.3349      1424.7046    
     84000   499.90258     -1.3151761e+08  4358.711       1424.7188    
     85000   499.96893     -1.3151852e+08  4356.1643      1424.7331    
     86000   499.89592     -1.31518e+08    4354.1807      1424.7473    
     87000   500.06339     -1.3151828e+08  4346.9951      1424.7615    
     88000   500.01276     -1.3151779e+08  4338.9304      1424.7758    
     89000   500.05085     -1.315179e+08   4335.9422      1424.79      
     90000   500.01582     -1.3151754e+08  4339.3305      1424.8043    
     91000   499.97125     -1.3151848e+08  4330.1638      1424.8185    
     92000   499.89686     -1.3151816e+08  4332.5035      1424.8328    
     93000   499.91325     -1.3151849e+08  4337.5024      1424.847     
     94000   499.95588     -1.3151809e+08  4341.0472      1424.8612    
     95000   500.04131     -1.3151847e+08  4312.5523      1424.8755    
     96000   499.93674     -1.3151788e+08  4313.507       1424.8897    
     97000   499.93612     -1.3151751e+08  4307.4913      1424.904     
     98000   499.94562     -1.3151792e+08  4321.497       1424.9182    
     99000   499.87289     -1.3151764e+08  4327.4867      1424.9325    
    100000   500.00487     -1.3151866e+08  4312.3411      1424.9467    
    101000   500.05951     -1.3151858e+08  4312.8047      1424.9609    
    102000   499.99856     -1.315184e+08   4299.4744      1424.9752    
    103000   499.96163     -1.3151772e+08  4294.7756      1424.9894    
    104000   499.97065     -1.3151796e+08  4295.9625      1425.0037    
    105000   500.01089     -1.3151859e+08  4289.112       1425.0179    
    106000   499.94111     -1.3151867e+08  4288.3642      1425.0322    
    107000   499.96486     -1.3151887e+08  4288.2107      1425.0464    
    108000   499.85585     -1.3151838e+08  4295.1529      1425.0606    
    109000   499.94889     -1.3151811e+08  4283.9087      1425.0749    
    110000   499.97981     -1.3151761e+08  4279.3268      1425.0891    
    111000   500.08355     -1.315179e+08   4269.9303      1425.1034    
    112000   500.09526     -1.315173e+08   4274.3325      1425.1176    
    113000   499.99889     -1.3151755e+08  4264.849       1425.1318    
    114000   500.06192     -1.3151745e+08  4272.299       1425.1461    
    115000   500.06087     -1.3151766e+08  4272.0794      1425.1603    
    116000   499.95483     -1.315178e+08   4276.109       1425.1746    
    117000   500.06871     -1.3151805e+08  4274.3577      1425.1888    
    118000   499.99443     -1.3151785e+08  4257.306       1425.2031    
    119000   500.01254     -1.3151748e+08  4255.793       1425.2173    
    120000   500.00391     -1.3151766e+08  4258.2764      1425.2315    
    121000   499.87772     -1.3151757e+08  4261.0064      1425.2458    
    122000   500.04421     -1.3151805e+08  4254.8995      1425.26      
    123000   499.92227     -1.315175e+08   4255.5489      1425.2743    
    124000   500.07805     -1.3151827e+08  4238.3025      1425.2885    
    125000   499.99603     -1.3151777e+08  4244.2736      1425.3028    
    126000   499.96807     -1.315178e+08   4238.0646      1425.317     
    127000   500.0562      -1.3151799e+08  4229.2252      1425.3312    
    128000   499.92177     -1.3151777e+08  4227.3358      1425.3455    
    129000   499.9119      -1.3151787e+08  4235.1413      1425.3597    
    130000   500.00415     -1.3151777e+08  4237.9729      1425.374     
    131000   500.01708     -1.3151786e+08  4222.3481      1425.3882    
    132000   499.98216     -1.3151777e+08  4221.9128      1425.4025    
    133000   499.89221     -1.3151769e+08  4211.8073      1425.4167    
    134000   499.92249     -1.3151776e+08  4212.7869      1425.4309    
    135000   499.97235     -1.3151793e+08  4222.4304      1425.4452    
    136000   499.87083     -1.3151767e+08  4217.7005      1425.4594    
    137000   500.03199     -1.3151822e+08  4197.1472      1425.4737    
    138000   499.97619     -1.3151802e+08  4197.0515      1425.4879    
    139000   499.94346     -1.3151819e+08  4194.7581      1425.5021    
    140000   499.9354      -1.3151782e+08  4214.899       1425.5164    
    141000   500.0041      -1.3151803e+08  4204.0221      1425.5306    
    142000   499.92005     -1.3151807e+08  4198.4444      1425.5449    
    143000   500.03481     -1.3151874e+08  4178.3933      1425.5591    
    144000   499.82114     -1.3151805e+08  4175.6381      1425.5734    
    145000   499.88892     -1.3151776e+08  4186.3835      1425.5876    
    146000   500.00755     -1.3151786e+08  4186.4265      1425.6018    
    147000   499.97467     -1.3151774e+08  4175.4373      1425.6161    
    148000   499.91601     -1.3151764e+08  4166.7068      1425.6303    
    149000   500.07617     -1.3151759e+08  4158.0851      1425.6446    
    150000   500.0288      -1.3151798e+08  4157.8014      1425.6588    
    151000   500.01389     -1.315181e+08   4175.0229      1425.6731    
    152000   499.98759     -1.3151792e+08  4173.2357      1425.6873    
    153000   500.01438     -1.3151765e+08  4176.4593      1425.7015    
    154000   499.87929     -1.3151704e+08  4151.2533      1425.7158    
    155000   499.99233     -1.3151803e+08  4141.3505      1425.73      
    156000   499.98018     -1.3151766e+08  4145.9647      1425.7443    
    157000   500.01446     -1.3151773e+08  4159.1267      1425.7585    
    158000   500.01021     -1.3151762e+08  4159.3563      1425.7728    
    159000   499.98252     -1.3151773e+08  4152.7982      1425.787     
    160000   499.9275      -1.3151749e+08  4129.4693      1425.8012    
    161000   500.01405     -1.3151798e+08  4126.7324      1425.8155    
    162000   499.89531     -1.3151734e+08  4128.6168      1425.8297    
    163000   500.03059     -1.3151771e+08  4141.1068      1425.844     
    164000   499.94099     -1.3151702e+08  4127.5627      1425.8582    
    165000   499.96761     -1.3151757e+08  4125.1284      1425.8724    
    166000   500.00598     -1.315175e+08   4128.1308      1425.8867    
    167000   500.00349     -1.3151807e+08  4119.4414      1425.9009    
    168000   499.86029     -1.3151776e+08  4109.6465      1425.9152    
    169000   499.98431     -1.315181e+08   4106.5777      1425.9294    
    170000   499.93642     -1.3151777e+08  4116.5375      1425.9437    
    171000   499.98097     -1.3151775e+08  4120.9013      1425.9579    
    172000   500.00145     -1.3151779e+08  4123.2132      1425.9721    
    173000   499.92926     -1.3151743e+08  4108.2541      1425.9864    
    174000   499.94582     -1.3151774e+08  4101.2954      1426.0006    
    175000   499.92181     -1.3151772e+08  4088.617       1426.0149    
    176000   500.02618     -1.3151733e+08  4091.2482      1426.0291    
    177000   500.0043      -1.3151729e+08  4092.8816      1426.0434    
    178000   500.05304     -1.3151767e+08  4098.0151      1426.0576    
    179000   500.0758      -1.3151791e+08  4090.403       1426.0718    
    180000   500.01248     -1.3151739e+08  4085.397       1426.0861    
    181000   499.95678     -1.315169e+08   4078.495       1426.1003    
    182000   500.0208      -1.3151737e+08  4078.4288      1426.1146    
    183000   499.93102     -1.3151767e+08  4075.266       1426.1288    
    184000   499.88481     -1.3151714e+08  4075.1069      1426.1431    
    185000   500.0514      -1.3151769e+08  4071.3315      1426.1573    
    186000   499.93476     -1.3151717e+08  4060.7824      1426.1715    
    187000   500.00297     -1.3151761e+08  4062.8         1426.1858    
    188000   499.90063     -1.3151721e+08  4060.1546      1426.2       
    189000   499.9459      -1.3151746e+08  4064.849       1426.2143    
    190000   499.98346     -1.3151828e+08  4057.1058      1426.2285    
    191000   499.8952      -1.3151807e+08  4066.2977      1426.2428    
    192000   499.88969     -1.3151807e+08  4052.435       1426.257     
    193000   500.01841     -1.3151827e+08  4045.3006      1426.2712    
    194000   499.84846     -1.3151692e+08  4043.4191      1426.2855    
    195000   500.00278     -1.3151696e+08  4031.4123      1426.2997    
    196000   499.97373     -1.3151717e+08  4039.2165      1426.314     
    197000   499.9815      -1.3151751e+08  4040.7305      1426.3282    
    198000   499.94558     -1.3151775e+08  4051.161       1426.3424    
    199000   499.94671     -1.3151743e+08  4050.5721      1426.3567    
    200000   500.00245     -1.3151799e+08  4033.2699      1426.3709    
    201000   499.97179     -1.315178e+08   4019.7027      1426.3852    
    202000   499.99333     -1.3151749e+08  4018.1928      1426.3994    
    203000   500.01965     -1.3151744e+08  4034.0611      1426.4137    
    204000   500.01852     -1.315174e+08   4033.599       1426.4279    
    205000   500.0713      -1.315173e+08   4023.0783      1426.4421    
    206000   499.96359     -1.3151757e+08  3997.9         1426.4564    
    207000   500.01549     -1.315181e+08   3986.4759      1426.4706    
    208000   499.92001     -1.3151784e+08  3998.0622      1426.4849    
    209000   499.94411     -1.3151825e+08  4002.7536      1426.4991    
    210000   499.99057     -1.3151781e+08  4018.6499      1426.5134    
    211000   500.04718     -1.3151828e+08  4002.2685      1426.5276    
    212000   499.9879      -1.3151757e+08  4003.2532      1426.5418    
    213000   499.95253     -1.3151726e+08  3989.6039      1426.5561    
    214000   499.98477     -1.3151741e+08  3983.3228      1426.5703    
    215000   499.98065     -1.3151681e+08  3990.0018      1426.5846    
    216000   500.07585     -1.3151665e+08  3975.947       1426.5988    
    217000   500.04091     -1.3151693e+08  3980.0747      1426.6131    
    218000   500.09161     -1.3151793e+08  3968.2855      1426.6273    
    219000   500.0415      -1.3151802e+08  3983.5527      1426.6415    
    220000   499.92029     -1.3151713e+08  3980.1345      1426.6558    
    221000   500.02864     -1.3151686e+08  3980.4978      1426.67      
    222000   500.00608     -1.3151718e+08  3971.6164      1426.6843    
    223000   500.04543     -1.315175e+08   3961.6371      1426.6985    
    224000   499.96661     -1.3151723e+08  3957.7017      1426.7127    
    225000   499.95402     -1.3151758e+08  3960.0449      1426.727     
    226000   500.03423     -1.3151771e+08  3958.5428      1426.7412    
    227000   500.05947     -1.315177e+08   3945.7128      1426.7555    
    228000   499.98886     -1.3151688e+08  3945.6476      1426.7697    
    229000   500.02353     -1.315172e+08   3944.1413      1426.784     
    230000   499.99581     -1.3151701e+08  3948.8286      1426.7982    
    231000   499.99219     -1.3151745e+08  3940.7249      1426.8124    
    232000   499.89159     -1.3151712e+08  3932.3992      1426.8267    
    233000   499.99578     -1.315172e+08   3934.9375      1426.8409    
    234000   500.07093     -1.3151728e+08  3943.6591      1426.8552    
    235000   499.9493      -1.3151675e+08  3934.2259      1426.8694    
    236000   500.06673     -1.3151758e+08  3930.2721      1426.8837    
    237000   499.98542     -1.3151689e+08  3924.9274      1426.8979    
    238000   500.09835     -1.3151698e+08  3920.5539      1426.9121    
    239000   500.06209     -1.3151675e+08  3915.9707      1426.9264    
    240000   500.0546      -1.3151677e+08  3913.1861      1426.9406    
    241000   500.10245     -1.3151694e+08  3914.8069      1426.9549    
    242000   499.92063     -1.3151687e+08  3909.4781      1426.9691    
    243000   500.08553     -1.3151706e+08  3897.8535      1426.9834    
    244000   500.06446     -1.3151687e+08  3901.515       1426.9976    
    245000   500.07718     -1.315165e+08   3894.2307      1427.0118    
    246000   500.12409     -1.3151677e+08  3900.3906      1427.0261    
    247000   500.08761     -1.3151662e+08  3902.2983      1427.0403    
    248000   500.06124     -1.3151678e+08  3905.4928      1427.0546    
    249000   500.02066     -1.3151688e+08  3893.4201      1427.0688    
    250000   500.07831     -1.3151673e+08  3893.5462      1427.083     
    251000   499.9839      -1.3151626e+08  3885.5549      1427.0973    
    252000   500.04373     -1.3151684e+08  3879.9494      1427.1115    
    253000   500.06844     -1.3151713e+08  3878.4439      1427.1258    
    254000   499.92171     -1.3151692e+08  3876.541       1427.14      
    255000   500.01047     -1.3151689e+08  3877.8518      1427.1543    
    256000   499.96681     -1.3151736e+08  3855.0149      1427.1685    
    257000   499.80986     -1.3151715e+08  3869.6995      1427.1827    
    258000   499.78229     -1.3151728e+08  3859.5811      1427.197     
    259000   499.95417     -1.3151739e+08  3865.1188      1427.2112    
    260000   499.98863     -1.315176e+08   3850.1328      1427.2255    
    261000   499.93477     -1.3151701e+08  3866.0793      1427.2397    
    262000   499.82636     -1.3151705e+08  3846.8591      1427.254     
    263000   499.99125     -1.3151771e+08  3848.5839      1427.2682    
    264000   499.87221     -1.31517e+08    3841.9924      1427.2824    
    265000   500.00701     -1.3151714e+08  3851.7366      1427.2967    
    266000   499.99652     -1.315171e+08   3841.531       1427.3109    
    267000   500.01046     -1.3151755e+08  3840.427       1427.3252    
    268000   499.99363     -1.3151757e+08  3846.0193      1427.3394    
    269000   499.96403     -1.3151734e+08  3839.4872      1427.3537    
    270000   499.92593     -1.315168e+08   3823.8236      1427.3679    
    271000   499.94343     -1.3151705e+08  3826.0249      1427.3821    
    272000   499.94089     -1.3151631e+08  3825.0454      1427.3964    
    273000   499.95844     -1.3151611e+08  3825.7628      1427.4106    
    274000   499.99664     -1.315158e+08   3825.0716      1427.4249    
    275000   500.0089      -1.3151641e+08  3820.3737      1427.4391    
    276000   499.98521     -1.315164e+08   3806.5941      1427.4533    
    277000   499.94422     -1.3151698e+08  3804.2668      1427.4676    
    278000   499.90223     -1.3151674e+08  3808.3275      1427.4818    
    279000   499.96454     -1.3151691e+08  3814.5931      1427.4961    
    280000   499.93139     -1.3151719e+08  3813.2876      1427.5103    
    281000   499.98335     -1.3151743e+08  3802.8307      1427.5246    
    282000   499.98087     -1.3151683e+08  3793.6622      1427.5388    
    283000   499.89858     -1.3151622e+08  3793.4401      1427.553     
    284000   499.90824     -1.31516e+08    3786.476       1427.5673    
    285000   499.94964     -1.315164e+08   3785.8182      1427.5815    
    286000   499.95802     -1.3151701e+08  3798.5627      1427.5958    
    287000   500.04521     -1.3151716e+08  3785.7458      1427.61      
    288000   500.10004     -1.3151652e+08  3794.0069      1427.6243    
    289000   500.01927     -1.315165e+08   3781.7455      1427.6385    
    290000   500.01589     -1.3151658e+08  3780.6195      1427.6527    
    291000   499.94789     -1.3151668e+08  3773.7474      1427.667     
    292000   500.03132     -1.3151688e+08  3766.0095      1427.6812    
    293000   499.97494     -1.3151663e+08  3773.6999      1427.6955    
    294000   500.00927     -1.3151657e+08  3769.1832      1427.7097    
    295000   500.08222     -1.3151673e+08  3752.9854      1427.724     
    296000   500.08402     -1.3151662e+08  3759.3741      1427.7382    
    297000   499.92992     -1.3151634e+08  3754.1743      1427.7524    
    298000   500.04204     -1.3151648e+08  3752.5412      1427.7667    
    299000   500.0601      -1.3151664e+08  3753.2884      1427.7809    
    300000   500.01074     -1.3151559e+08  3751.7917      1427.7952    
    301000   500.05487     -1.3151592e+08  3755.96        1427.8094    
    302000   499.95517     -1.3151627e+08  3735.7347      1427.8237    
    303000   499.89203     -1.315165e+08   3733.7173      1427.8379    
    304000   499.94954     -1.31517e+08    3725.9027      1427.8521    
    305000   500.00128     -1.3151685e+08  3738.2945      1427.8664    
    306000   499.94985     -1.3151639e+08  3750.5254      1427.8806    
    307000   500.00999     -1.3151652e+08  3741.4062      1427.8949    
    308000   499.95677     -1.315163e+08   3726.7488      1427.9091    
    309000   499.96593     -1.3151587e+08  3713.0562      1427.9233    
    310000   500.23414     -1.315172e+08   3711.1979      1427.9376    
    311000   500.0736      -1.3151614e+08  3709.2569      1427.9518    
    312000   500.01139     -1.315155e+08   3707.2006      1427.9661    
    313000   500.09017     -1.3151609e+08  3708.3361      1427.9803    
    314000   499.98066     -1.3151559e+08  3712.2614      1427.9946    
    315000   499.97764     -1.3151619e+08  3709.7173      1428.0088    
    316000   500.04333     -1.3151583e+08  3702.4536      1428.023     
    317000   500.03199     -1.3151581e+08  3703.8564      1428.0373    
    318000   500.02153     -1.3151564e+08  3700.8421      1428.0515    
    319000   500.04792     -1.3151607e+08  3704.0595      1428.0658    
    320000   500.01679     -1.3151632e+08  3690.6359      1428.08      
    321000   499.94894     -1.3151609e+08  3676.1739      1428.0943    
    322000   499.98728     -1.3151595e+08  3686.271       1428.1085    
    323000   499.97176     -1.3151619e+08  3676.7516      1428.1227    
    324000   499.86303     -1.3151594e+08  3681.58        1428.137     
    325000   499.92319     -1.3151625e+08  3690.7111      1428.1512    
    326000   499.87134     -1.3151665e+08  3687.519       1428.1655    
    327000   499.93954     -1.3151656e+08  3674.2832      1428.1797    
    328000   499.89229     -1.3151636e+08  3672.1329      1428.194     
    329000   499.99934     -1.3151611e+08  3666.6953      1428.2082    
    330000   499.91642     -1.3151588e+08  3673.3264      1428.2224    
    331000   499.93701     -1.3151626e+08  3664.8679      1428.2367    
    332000   499.98601     -1.3151652e+08  3661.053       1428.2509    
    333000   500.01586     -1.3151625e+08  3656.1089      1428.2652    
    334000   499.99223     -1.3151618e+08  3652.3689      1428.2794    
    335000   499.98954     -1.3151616e+08  3654.9334      1428.2936    
    336000   499.97934     -1.3151607e+08  3639.3682      1428.3079    
    337000   500.00566     -1.3151616e+08  3645.6752      1428.3221    
    338000   500.0196      -1.3151609e+08  3637.9647      1428.3364    
    339000   500.0892      -1.3151617e+08  3644.2107      1428.3506    
    340000   499.98615     -1.3151589e+08  3628.7068      1428.3649    
    341000   500.03249     -1.3151581e+08  3630.4064      1428.3791    
    342000   500.05069     -1.3151611e+08  3614.2438      1428.3933    
    343000   500.05036     -1.3151624e+08  3632.1763      1428.4076    
    344000   500.05704     -1.3151637e+08  3624.5756      1428.4218    
    345000   499.92746     -1.3151622e+08  3634.1276      1428.4361    
    346000   500.01217     -1.3151626e+08  3616.9163      1428.4503    
    347000   500.00099     -1.3151528e+08  3622.8133      1428.4646    
    348000   500.09343     -1.3151609e+08  3611.3029      1428.4788    
    349000   499.94967     -1.3151565e+08  3620.1213      1428.493     
    350000   499.99591     -1.3151578e+08  3609.7553      1428.5073    
    351000   500.11187     -1.3151564e+08  3618.4372      1428.5215    
    352000   500.03578     -1.3151552e+08  3611.111       1428.5358    
    353000   500.02553     -1.3151573e+08  3610.2806      1428.55      
    354000   500.02341     -1.3151547e+08  3599.741       1428.5643    
    355000   499.97243     -1.3151514e+08  3595.849       1428.5785    
    356000   500.16102     -1.3151569e+08  3591.7348      1428.5927    
    357000   500.01861     -1.3151558e+08  3588.1774      1428.607     
    358000   499.94193     -1.3151535e+08  3601.8135      1428.6212    
    359000   499.99879     -1.3151588e+08  3590.1925      1428.6355    
    360000   499.85664     -1.315156e+08   3587.1934      1428.6497    
    361000   499.88901     -1.3151557e+08  3578.9119      1428.6639    
    362000   499.92466     -1.3151594e+08  3567.2336      1428.6782    
    363000   499.95466     -1.3151565e+08  3567.6167      1428.6924    
    364000   500.08359     -1.3151586e+08  3571.0844      1428.7067    
    365000   500.05313     -1.3151576e+08  3580.1664      1428.7209    
    366000   500.01336     -1.3151563e+08  3579.3073      1428.7352    
    367000   499.95736     -1.3151586e+08  3564.8975      1428.7494    
    368000   499.99008     -1.3151565e+08  3559.8157      1428.7636    
    369000   499.94819     -1.3151516e+08  3545.3004      1428.7779    
    370000   500.01376     -1.3151569e+08  3553.6762      1428.7921    
    371000   499.99609     -1.315158e+08   3547.3534      1428.8064    
    372000   500.00004     -1.3151563e+08  3558.1685      1428.8206    
    373000   500.14054     -1.3151606e+08  3554.7566      1428.8349    
    374000   500.04738     -1.3151565e+08  3550.1616      1428.8491    
    375000   499.88959     -1.3151527e+08  3540.0352      1428.8633    
    376000   500.06278     -1.3151577e+08  3529.4926      1428.8776    
    377000   500.04162     -1.3151566e+08  3527.4782      1428.8918    
    378000   499.99109     -1.3151508e+08  3522.4964      1428.9061    
    379000   499.92589     -1.3151511e+08  3528.866       1428.9203    
    380000   500.06721     -1.3151559e+08  3529.1006      1428.9346    
    381000   500.00354     -1.3151489e+08  3538.2097      1428.9488    
    382000   499.97736     -1.3151515e+08  3514.1613      1428.963     
    383000   499.95604     -1.3151515e+08  3518.5958      1428.9773    
    384000   500.05381     -1.3151543e+08  3508.2683      1428.9915    
    385000   500.03718     -1.3151563e+08  3515.981       1429.0058    
    386000   500.08052     -1.3151607e+08  3510.9641      1429.02      
    387000   500.00092     -1.3151532e+08  3512.2018      1429.0343    
    388000   500.01312     -1.3151578e+08  3497.4381      1429.0485    
    389000   499.93605     -1.3151512e+08  3497.1912      1429.0627    
    390000   499.89631     -1.3151578e+08  3491.5982      1429.077     
    391000   499.92907     -1.3151553e+08  3492.7957      1429.0912    
    392000   499.94071     -1.3151562e+08  3491.6882      1429.1055    
    393000   499.98391     -1.315154e+08   3494.2686      1429.1197    
    394000   500.02991     -1.3151515e+08  3496.9971      1429.1339    
    395000   500.07506     -1.3151566e+08  3502.6113      1429.1482    
    396000   500.04038     -1.3151509e+08  3492.8256      1429.1624    
    397000   499.98478     -1.3151496e+08  3485.3056      1429.1767    
    398000   500.01743     -1.3151514e+08  3487.3713      1429.1909    
    399000   499.94121     -1.3151533e+08  3485.8871      1429.2052    
    400000   499.92846     -1.315156e+08   3481.6832      1429.2194    
    401000   499.99374     -1.3151561e+08  3470.7132      1429.2336    
    402000   499.92586     -1.3151475e+08  3463.9101      1429.2479    
    403000   499.92561     -1.3151471e+08  3462.0355      1429.2621    
    404000   499.99861     -1.3151521e+08  3463.6198      1429.2764    
    405000   500.03559     -1.315155e+08   3466.7213      1429.2906    
    406000   499.99216     -1.3151523e+08  3461.5822      1429.3049    
    407000   500.00774     -1.3151562e+08  3452.5455      1429.3191    
    408000   499.89606     -1.3151483e+08  3451.0733      1429.3333    
    409000   500.03769     -1.3151518e+08  3444.8958      1429.3476    
    410000   499.92127     -1.3151513e+08  3441.7163      1429.3618    
    411000   500.03979     -1.3151513e+08  3432.484       1429.3761    
    412000   499.91329     -1.31515e+08    3429.1332      1429.3903    
    413000   500.01263     -1.3151532e+08  3428.8352      1429.4046    
    414000   500.04914     -1.3151512e+08  3437.3279      1429.4188    
    415000   499.90184     -1.3151513e+08  3439.8311      1429.433     
    416000   500.05976     -1.3151594e+08  3423.9846      1429.4473    
    417000   500.0097      -1.3151499e+08  3413.5861      1429.4615    
    418000   500.09939     -1.3151519e+08  3404.0814      1429.4758    
    419000   500.09277     -1.3151476e+08  3411.646       1429.49      
    420000   500.03437     -1.3151456e+08  3412.1056      1429.5042    
    421000   500.04916     -1.3151468e+08  3426.684       1429.5185    
    422000   500.0074      -1.3151467e+08  3422.8993      1429.5327    
    423000   500.03537     -1.3151467e+08  3412.8709      1429.547     
    424000   500.06687     -1.3151461e+08  3398.9326      1429.5612    
    425000   500.13023     -1.3151489e+08  3404.7392      1429.5755    
    426000   500.00228     -1.3151489e+08  3405.2167      1429.5897    
    427000   499.9984      -1.3151534e+08  3401.1452      1429.6039    
    428000   499.89868     -1.3151432e+08  3395.5538      1429.6182    
    429000   500.00368     -1.3151514e+08  3375.7673      1429.6324    
    430000   500.00582     -1.3151547e+08  3373.2366      1429.6467    
    431000   499.94439     -1.3151533e+08  3382.4991      1429.6609    
    432000   499.92706     -1.3151511e+08  3398.0999      1429.6752    
    433000   500.04765     -1.3151527e+08  3395.6785      1429.6894    
    434000   500.06752     -1.3151535e+08  3389.7428      1429.7036    
    435000   499.94485     -1.3151451e+08  3373.024       1429.7179    
    436000   500.07642     -1.3151449e+08  3360.7804      1429.7321    
    437000   500.05204     -1.3151461e+08  3362.2568      1429.7464    
    438000   500.08526     -1.3151479e+08  3363.7908      1429.7606    
    439000   500.05952     -1.3151476e+08  3377.649       1429.7749    
    440000   499.9475      -1.3151435e+08  3369.36        1429.7891    
    441000   499.97169     -1.3151442e+08  3361.2295      1429.8033    
    442000   499.95127     -1.3151473e+08  3352.4103      1429.8176    
    443000   500.15424     -1.3151511e+08  3347.8855      1429.8318    
    444000   500.0028      -1.3151449e+08  3335.9643      1429.8461    
    445000   500.03013     -1.3151465e+08  3343.252       1429.8603    
    446000   500.04138     -1.3151451e+08  3339.7351      1429.8745    
    447000   500.07858     -1.3151462e+08  3337.8361      1429.8888    
    448000   500.02898     -1.3151451e+08  3329.9455      1429.903     
    449000   499.99642     -1.3151442e+08  3340.3657      1429.9173    
    450000   499.88884     -1.3151444e+08  3344.2235      1429.9315    
    451000   499.98595     -1.3151426e+08  3341.982       1429.9458    
    452000   499.93918     -1.3151386e+08  3333.3096      1429.96      
    453000   499.96912     -1.3151423e+08  3317.6186      1429.9742    
    454000   499.97066     -1.3151399e+08  3320.8722      1429.9885    
    455000   500.03967     -1.3151414e+08  3329.1694      1430.0027    
    456000   499.94936     -1.3151399e+08  3326.8417      1430.017     
    457000   500.06763     -1.3151459e+08  3314.952       1430.0312    
    458000   500.06041     -1.3151449e+08  3310.1462      1430.0455    
    459000   500.01929     -1.3151393e+08  3293.2282      1430.0597    
    460000   499.99916     -1.315138e+08   3296.9362      1430.0739    
    461000   499.93206     -1.3151413e+08  3294.7241      1430.0882    
    462000   500.07382     -1.3151488e+08  3297.561       1430.1024    
    463000   499.91962     -1.3151445e+08  3300.633       1430.1167    
    464000   499.83838     -1.3151431e+08  3295.7332      1430.1309    
    465000   499.95357     -1.3151415e+08  3298.1887      1430.1452    
    466000   500.08509     -1.3151412e+08  3299.4905      1430.1594    
    467000   499.97879     -1.3151451e+08  3288.4049      1430.1736    
    468000   500.06776     -1.3151451e+08  3295.9595      1430.1879    
    469000   500.11294     -1.3151401e+08  3286.7322      1430.2021    
    470000   499.96235     -1.3151391e+08  3277.5462      1430.2164    
    471000   499.95808     -1.3151383e+08  3262.0936      1430.2306    
    472000   500.06157     -1.3151402e+08  3282.0936      1430.2448    
    473000   500.09909     -1.3151416e+08  3272.6696      1430.2591    
    474000   500.1306      -1.3151442e+08  3278.4576      1430.2733    
    475000   499.92005     -1.3151367e+08  3264.2241      1430.2876    
    476000   500.0599      -1.3151408e+08  3261.441       1430.3018    
    477000   500.09336     -1.3151428e+08  3266.5739      1430.3161    
    478000   499.96747     -1.3151436e+08  3266.3187      1430.3303    
    479000   500.01031     -1.3151438e+08  3265.5199      1430.3445    
    480000   499.8848      -1.3151374e+08  3269.7109      1430.3588    
    481000   499.8949      -1.3151428e+08  3249.8562      1430.373     
    482000   499.94042     -1.3151465e+08  3242.6241      1430.3873    
    483000   499.88321     -1.3151414e+08  3236.6193      1430.4015    
    484000   499.88405     -1.3151403e+08  3236.8727      1430.4158    
    485000   499.99573     -1.3151429e+08  3233.376       1430.43      
    486000   499.93715     -1.3151349e+08  3232.0396      1430.4442    
    487000   500.01829     -1.3151413e+08  3235.7784      1430.4585    
    488000   499.97239     -1.3151387e+08  3237.8274      1430.4727    
    489000   499.94342     -1.3151398e+08  3231.3401      1430.487     
    490000   499.82073     -1.3151319e+08  3224.0404      1430.5012    
    491000   499.92472     -1.3151403e+08  3213.6906      1430.5155    
    492000   500.06996     -1.3151406e+08  3214.2649      1430.5297    
    493000   499.97652     -1.3151408e+08  3218.4841      1430.5439    
    494000   499.89924     -1.3151411e+08  3221.1615      1430.5582    
    495000   500.00707     -1.3151415e+08  3207.849       1430.5724    
    496000   499.8657      -1.3151362e+08  3210.7162      1430.5867    
    497000   500.04505     -1.3151405e+08  3196.7869      1430.6009    
    498000   500.04147     -1.3151339e+08  3201.0808      1430.6152    
    499000   500.01904     -1.3151314e+08  3200.7832      1430.6294    
    500000   500.00342     -1.3151373e+08  3197.1154      1430.6436    
    501000   500.03692     -1.3151344e+08  3192.8944      1430.6579    
    502000   499.97743     -1.3151376e+08  3191.3728      1430.6721    
    503000   500.06002     -1.3151358e+08  3197.6035      1430.6864    
    504000   499.96309     -1.315126e+08   3190.713       1430.7006    
    505000   500.22657     -1.3151361e+08  3187.617       1430.7148    
    506000   500.00127     -1.3151297e+08  3181.9555      1430.7291    
    507000   500.02359     -1.315131e+08   3182.9062      1430.7433    
    508000   500.01078     -1.3151309e+08  3168.1706      1430.7576    
    509000   500.01355     -1.3151291e+08  3163.9074      1430.7718    
    510000   500.05405     -1.3151283e+08  3169.8325      1430.7861    
    511000   500.08413     -1.3151281e+08  3172.5064      1430.8003    
    512000   500.09632     -1.3151325e+08  3166.4276      1430.8145    
    513000   500.01543     -1.3151287e+08  3164.9295      1430.8288    
    514000   500.03913     -1.3151315e+08  3160.929       1430.843     
    515000   500.02221     -1.3151342e+08  3160.4687      1430.8573    
    516000   499.99062     -1.3151347e+08  3156.1311      1430.8715    
    517000   499.93799     -1.3151351e+08  3147.4874      1430.8858    
    518000   499.98264     -1.3151332e+08  3148.6235      1430.9       
    519000   500.03997     -1.3151337e+08  3151.1164      1430.9142    
    520000   500.02454     -1.3151367e+08  3154.8756      1430.9285    
    521000   500.03242     -1.3151371e+08  3152.4396      1430.9427    
    522000   499.91383     -1.3151343e+08  3142.5569      1430.957     
    523000   499.97662     -1.3151359e+08  3122.056       1430.9712    
    524000   499.94783     -1.3151313e+08  3119.9444      1430.9855    
    525000   499.99939     -1.3151342e+08  3123.3403      1430.9997    
    526000   500.09402     -1.3151337e+08  3126.2994      1431.0139    
    527000   500.04325     -1.3151304e+08  3124.5701      1431.0282    
    528000   500.02144     -1.3151271e+08  3124.1328      1431.0424    
    529000   500.04754     -1.3151315e+08  3118.5155      1431.0567    
    530000   499.99965     -1.3151326e+08  3115.2016      1431.0709    
    531000   499.91489     -1.3151306e+08  3117.8333      1431.0851    
    532000   499.91925     -1.3151366e+08  3112.1832      1431.0994    
    533000   499.81453     -1.3151358e+08  3107.0037      1431.1136    
    534000   499.95023     -1.3151407e+08  3096.4835      1431.1279    
    535000   499.98478     -1.3151327e+08  3099.7627      1431.1421    
    536000   500.13046     -1.3151299e+08  3099.2592      1431.1564    
    537000   500.03289     -1.3151332e+08  3088.7167      1431.1706    
    538000   499.90005     -1.3151305e+08  3092.4232      1431.1848    
    539000   499.91037     -1.315128e+08   3089.9141      1431.1991    
    540000   499.88186     -1.315135e+08   3086.188       1431.2133    
    541000   499.91742     -1.3151333e+08  3084.7236      1431.2276    
    542000   499.95121     -1.3151368e+08  3088.5387      1431.2418    
    543000   500.00237     -1.3151354e+08  3087.9204      1431.2561    
    544000   499.96253     -1.3151316e+08  3074.9507      1431.2703    
    545000   500.00776     -1.315133e+08   3071.2487      1431.2845    
    546000   499.97203     -1.3151297e+08  3067.4851      1431.2988    
    547000   500.02375     -1.3151329e+08  3070.595       1431.313     
    548000   499.99168     -1.3151288e+08  3069.9185      1431.3273    
    549000   499.97499     -1.3151257e+08  3070.9526      1431.3415    
    550000   499.97023     -1.3151284e+08  3065.6198      1431.3558    
    551000   499.97732     -1.3151327e+08  3055.2818      1431.37      
    552000   499.9633      -1.3151272e+08  3051.013       1431.3842    
    553000   499.90296     -1.3151237e+08  3056.346       1431.3985    
    554000   499.93683     -1.3151248e+08  3050.4223      1431.4127    
    555000   499.98483     -1.315125e+08   3042.2083      1431.427     
    556000   500.09117     -1.3151271e+08  3040.1674      1431.4412    
    557000   500.00411     -1.3151254e+08  3047.1089      1431.4554    
    558000   500.00352     -1.3151279e+08  3047.7468      1431.4697    
    559000   499.95848     -1.3151286e+08  3045.3118      1431.4839    
    560000   499.98128     -1.3151306e+08  3044.5391      1431.4982    
    561000   499.94982     -1.3151287e+08  3041.1569      1431.5124    
    562000   499.93528     -1.3151249e+08  3026.8046      1431.5267    
    563000   499.88365     -1.3151267e+08  3016.246       1431.5409    
    564000   499.91757     -1.3151321e+08  3012.4755      1431.5551    
    565000   499.96084     -1.315128e+08   3021.7571      1431.5694    
    566000   499.9662      -1.3151291e+08  3030.0452      1431.5836    
    567000   499.92333     -1.3151249e+08  3018.5319      1431.5979    
    568000   499.91607     -1.3151216e+08  3020.5044      1431.6121    
    569000   500.08986     -1.3151298e+08  3014.9964      1431.6264    
    570000   499.99633     -1.3151238e+08  3017.0456      1431.6406    
    571000   499.94919     -1.315122e+08   3009.9395      1431.6548    
    572000   499.98029     -1.3151218e+08  3003.7105      1431.6691    
    573000   500.06934     -1.3151296e+08  2991.8413      1431.6833    
    574000   499.87564     -1.3151232e+08  2985.8206      1431.6976    
    575000   500.0402      -1.3151304e+08  2992.0584      1431.7118    
    576000   500.02888     -1.3151227e+08  2989.0104      1431.7261    
    577000   499.91942     -1.31512e+08    2991.8623      1431.7403    
    578000   499.96827     -1.3151275e+08  2975.7286      1431.7545    
    579000   500.02315     -1.3151253e+08  2985.4077      1431.7688    
    580000   499.97169     -1.3151215e+08  2993.7625      1431.783     
    581000   500.03105     -1.3151212e+08  2994.0358      1431.7973    
    582000   500.00694     -1.3151225e+08  2989.9568      1431.8115    
    583000   499.98656     -1.3151268e+08  2983.6476      1431.8257    
    584000   499.94927     -1.315129e+08   2973.0248      1431.84      
    585000   499.89269     -1.3151274e+08  2972.5289      1431.8542    
    586000   499.92709     -1.3151264e+08  2953.7665      1431.8685    
    587000   499.94991     -1.3151256e+08  2937.5645      1431.8827    
    588000   499.93103     -1.3151229e+08  2946.9489      1431.897     
    589000   499.9162      -1.3151224e+08  2955.903       1431.9112    
    590000   500.01257     -1.3151254e+08  2958.6901      1431.9254    
    591000   500.03915     -1.3151206e+08  2963.9503      1431.9397    
    592000   500.03967     -1.3151178e+08  2949.1594      1431.9539    
    593000   500.05097     -1.3151204e+08  2934.0611      1431.9682    
    594000   500.09931     -1.3151204e+08  2933.0797      1431.9824    
    595000   500.00847     -1.3151156e+08  2933.6847      1431.9967    
    596000   500.03925     -1.3151149e+08  2938.6022      1432.0109    
    597000   500.11855     -1.3151182e+08  2936.8174      1432.0251    
    598000   500.14301     -1.3151182e+08  2935.6353      1432.0394    
    599000   500.10814     -1.3151164e+08  2935.1429      1432.0536    
    600000   500.03953     -1.31512e+08    2923.2559      1432.0679    
    601000   499.97418     -1.315118e+08   2919.3034      1432.0821    
    602000   499.8884      -1.315122e+08   2917.5944      1432.0964    
    603000   499.93281     -1.315122e+08   2928.9825      1432.1106    
    604000   500.02095     -1.315121e+08   2927.8009      1432.1248    
    605000   500.00749     -1.3151195e+08  2917.2786      1432.1391    
    606000   499.98002     -1.3151153e+08  2904.3158      1432.1533    
    607000   500.04404     -1.3151225e+08  2900.6099      1432.1676    
    608000   499.96642     -1.3151175e+08  2905.1412      1432.1818    
    609000   499.96906     -1.3151161e+08  2897.8715      1432.1961    
    610000   499.96128     -1.3151166e+08  2898.1868      1432.2103    
    611000   499.99879     -1.315114e+08   2892.6963      1432.2245    
    612000   500.00965     -1.3151155e+08  2890.8699      1432.2388    
    613000   499.99056     -1.3151156e+08  2895.0773      1432.253     
    614000   499.92091     -1.3151146e+08  2885.2304      1432.2673    
    615000   499.98456     -1.3151152e+08  2889.8518      1432.2815    
    616000   500.03502     -1.3151186e+08  2884.8786      1432.2957    
    617000   500.01        -1.3151156e+08  2887.8512      1432.31      
    618000   499.90041     -1.3151094e+08  2884.0189      1432.3242    
    619000   500.01093     -1.315117e+08   2871.7947      1432.3385    
    620000   499.95904     -1.3151084e+08  2869.0425      1432.3527    
    621000   499.9372      -1.315113e+08   2873.7206      1432.367     
    622000   499.95025     -1.3151148e+08  2870.1271      1432.3812    
    623000   499.99188     -1.31511e+08    2877.2618      1432.3954    
    624000   500.00889     -1.3151133e+08  2859.962       1432.4097    
    625000   499.98139     -1.3151173e+08  2862.7298      1432.4239    
    626000   499.98039     -1.3151174e+08  2863.6906      1432.4382    
    627000   499.98615     -1.3151214e+08  2867.3627      1432.4524    
    628000   499.85481     -1.3151137e+08  2858.4205      1432.4667    
    629000   499.92533     -1.3151167e+08  2851.5201      1432.4809    
    630000   499.93706     -1.315117e+08   2833.3606      1432.4951    
    631000   499.95425     -1.3151158e+08  2838.8079      1432.5094    
    632000   499.91051     -1.3151165e+08  2843.6447      1432.5236    
    633000   499.96771     -1.3151148e+08  2850.6407      1432.5379    
    634000   499.89907     -1.3151094e+08  2864.1399      1432.5521    
    635000   499.94859     -1.3151128e+08  2838.9414      1432.5664    
    636000   499.80686     -1.31511e+08    2831.8978      1432.5806    
    637000   499.94092     -1.3151153e+08  2815.3379      1432.5948    
    638000   499.98248     -1.3151148e+08  2821.1424      1432.6091    
    639000   499.96424     -1.315108e+08   2822.318       1432.6233    
    640000   499.96444     -1.3151066e+08  2820.4725      1432.6376    
    641000   500.05002     -1.3151085e+08  2813.5532      1432.6518    
    642000   500.02786     -1.3151086e+08  2813.0574      1432.666     
    643000   500.02892     -1.3151079e+08  2813.072       1432.6803    
    644000   500.03487     -1.315108e+08   2818.7259      1432.6945    
    645000   500.02029     -1.3151064e+08  2816.2747      1432.7088    
    646000   500.01202     -1.3151077e+08  2806.0244      1432.723     
    647000   500.04497     -1.315104e+08   2799.7737      1432.7373    
    648000   500.00079     -1.3151063e+08  2800.2085      1432.7515    
    649000   500.00619     -1.3151116e+08  2812.0377      1432.7657    
    650000   500.04382     -1.3151079e+08  2804.8397      1432.78      
    651000   500.07241     -1.3151074e+08  2805.708       1432.7942    
    652000   500.00262     -1.3151056e+08  2778.2002      1432.8085    
    653000   499.99694     -1.3151047e+08  2780.7535      1432.8227    
    654000   499.97689     -1.3151041e+08  2776.0201      1432.837     
    655000   500.08407     -1.315106e+08   2782.3436      1432.8512    
    656000   500.02334     -1.3151062e+08  2774.9217      1432.8654    
    657000   499.98572     -1.3151059e+08  2767.1851      1432.8797    
    658000   500.03474     -1.315106e+08   2765.088       1432.8939    
    659000   499.98747     -1.3151049e+08  2765.4134      1432.9082    
    660000   499.99768     -1.3151076e+08  2760.3021      1432.9224    
    661000   499.94322     -1.3151009e+08  2755.4678      1432.9367    
    662000   499.97494     -1.3151026e+08  2766.1975      1432.9509    
    663000   499.99393     -1.3151077e+08  2763.2686      1432.9651    
    664000   499.96376     -1.3151023e+08  2769.2518      1432.9794    
    665000   499.99309     -1.3151012e+08  2765.722       1432.9936    
    666000   499.91545     -1.3151046e+08  2744.878       1433.0079    
    667000   499.9548      -1.3151024e+08  2751.9831      1433.0221    
    668000   499.97398     -1.3151028e+08  2742.8935      1433.0363    
    669000   500.05624     -1.3151059e+08  2747.6428      1433.0506    
    670000   499.97145     -1.3150963e+08  2748.2401      1433.0648    
    671000   500.04921     -1.3151009e+08  2742.6087      1433.0791    
    672000   499.99289     -1.3150964e+08  2736.206       1433.0933    
    673000   499.95094     -1.3150992e+08  2726.4705      1433.1076    
    674000   499.94204     -1.3151043e+08  2733.0729      1433.1218    
    675000   499.92155     -1.3150997e+08  2731.3746      1433.136     
    676000   500.05971     -1.3151017e+08  2734.4435      1433.1503    
    677000   499.97323     -1.3151048e+08  2728.2518      1433.1645    
    678000   499.99609     -1.3151005e+08  2719.4523      1433.1788    
    679000   499.98931     -1.3151033e+08  2705.8299      1433.193     
    680000   499.93006     -1.3150989e+08  2711.7328      1433.2073    
    681000   499.97176     -1.3150993e+08  2705.4355      1433.2215    
    682000   500.10564     -1.3151003e+08  2713.1073      1433.2357    
    683000   499.99984     -1.3150942e+08  2709.8569      1433.25      
    684000   500.02256     -1.3150983e+08  2702.675       1433.2642    
    685000   499.95694     -1.3150989e+08  2696.6414      1433.2785    
    686000   499.91119     -1.3150929e+08  2695.09        1433.2927    
    687000   500.0269      -1.3150973e+08  2688.649       1433.307     
    688000   499.94372     -1.315094e+08   2699.1769      1433.3212    
    689000   500.07377     -1.315098e+08   2696.1003      1433.3354    
    690000   500.06804     -1.3150964e+08  2699.7882      1433.3497    
    691000   500.14878     -1.3150952e+08  2690.841       1433.3639    
    692000   500.08457     -1.3150869e+08  2683.5888      1433.3782    
    693000   500.02639     -1.31509e+08    2676.526       1433.3924    
    694000   499.98102     -1.3150879e+08  2681.6427      1433.4067    
    695000   500.10918     -1.3150997e+08  2666.7615      1433.4209    
    696000   500.02745     -1.3150952e+08  2679.9959      1433.4351    
    697000   500.06324     -1.3150955e+08  2671.964       1433.4494    
    698000   500.09472     -1.3150929e+08  2672.2374      1433.4636    
    699000   499.99293     -1.3150953e+08  2661.0291      1433.4779    
    700000   500.00527     -1.3150959e+08  2662.5875      1433.4921    
    701000   499.97093     -1.3150987e+08  2643.0817      1433.5063    
    702000   500.03215     -1.3151007e+08  2645.0625      1433.5206    
    703000   499.99677     -1.3150944e+08  2646.4817      1433.5348    
    704000   500.04912     -1.3150992e+08  2655.7668      1433.5491    
    705000   500.06569     -1.3150965e+08  2651.1113      1433.5633    
    706000   499.95244     -1.3150989e+08  2640.9437      1433.5776    
    707000   499.96943     -1.3150985e+08  2629.3514      1433.5918    
    708000   499.84238     -1.3150929e+08  2630.2284      1433.606     
    709000   500.00344     -1.3150961e+08  2635.418       1433.6203    
    710000   499.98096     -1.3150901e+08  2644.2013      1433.6345    
    711000   499.98882     -1.3150893e+08  2635.9499      1433.6488    
    712000   499.95739     -1.3150897e+08  2633.6152      1433.663     
    713000   500.04921     -1.315096e+08   2619.9608      1433.6773    
    714000   499.99078     -1.3150857e+08  2628.3588      1433.6915    
    715000   500.06276     -1.3150934e+08  2611.9282      1433.7057    
    716000   499.93231     -1.3150925e+08  2626.7325      1433.72      
    717000   500.03851     -1.3150929e+08  2621.5935      1433.7342    
    718000   500.03438     -1.3150921e+08  2620.852       1433.7485    
    719000   499.83698     -1.3150912e+08  2607.9192      1433.7627    
    720000   499.89971     -1.3150919e+08  2599.7398      1433.777     
    721000   499.96397     -1.3150923e+08  2592.526       1433.7912    
    722000   499.98282     -1.3150909e+08  2603.4376      1433.8054    
    723000   499.88222     -1.3150912e+08  2605.1148      1433.8197    
    724000   499.89253     -1.3150931e+08  2599.5571      1433.8339    
    725000   500.0358      -1.3150936e+08  2587.573       1433.8482    
    726000   500.0148      -1.315089e+08   2578.8175      1433.8624    
    727000   499.98063     -1.3150936e+08  2580.1291      1433.8766    
    728000   499.95485     -1.3150928e+08  2587.4485      1433.8909    
    729000   499.88474     -1.3150925e+08  2584.0894      1433.9051    
    730000   499.86078     -1.3150921e+08  2573.3372      1433.9194    
    731000   500.0776      -1.3150964e+08  2584.1142      1433.9336    
    732000   500.0008      -1.3150896e+08  2582.1888      1433.9479    
    733000   499.97743     -1.3150938e+08  2584.4397      1433.9621    
    734000   499.93698     -1.3150898e+08  2573.1219      1433.9763    
    735000   499.98464     -1.3150905e+08  2571.4083      1433.9906    
    736000   499.97647     -1.3150879e+08  2562.1187      1434.0048    
    737000   500.06314     -1.3150896e+08  2555.3426      1434.0191    
    738000   500.01089     -1.3150862e+08  2558.6561      1434.0333    
    739000   500.02941     -1.3150808e+08  2555.3347      1434.0476    
    740000   500.17012     -1.3150833e+08  2550.636       1434.0618    
    741000   500.02319     -1.3150783e+08  2550.2422      1434.076     
    742000   500.08269     -1.315075e+08   2539.7587      1434.0903    
    743000   500.05231     -1.3150815e+08  2539.6755      1434.1045    
    744000   499.92185     -1.3150832e+08  2544.6524      1434.1188    
    745000   500.03012     -1.3150911e+08  2548.8568      1434.133     
    746000   499.88548     -1.3150867e+08  2545.1754      1434.1473    
    747000   499.92465     -1.3150916e+08  2536.3174      1434.1615    
    748000   499.91066     -1.315088e+08   2528.6356      1434.1757    
    749000   499.88442     -1.3150867e+08  2525.4831      1434.19      
    750000   499.87669     -1.3150851e+08  2518.8535      1434.2042    
    751000   499.97918     -1.3150859e+08  2517.4591      1434.2185    
    752000   499.96172     -1.3150828e+08  2526.8819      1434.2327    
    753000   499.92213     -1.3150849e+08  2516.2537      1434.2469    
    754000   499.99275     -1.3150813e+08  2518.2828      1434.2612    
    755000   499.97843     -1.3150805e+08  2512.0885      1434.2754    
    756000   499.90928     -1.3150806e+08  2507.5596      1434.2897    
    757000   500.01047     -1.3150838e+08  2514.6066      1434.3039    
    758000   500.02281     -1.3150849e+08  2510.7245      1434.3182    
    759000   500.04773     -1.3150804e+08  2510.4736      1434.3324    
    760000   499.88879     -1.3150747e+08  2502.4479      1434.3466    
    761000   500.03836     -1.3150747e+08  2498.2886      1434.3609    
    762000   500.0553      -1.3150786e+08  2486.5319      1434.3751    
    763000   500.04593     -1.3150799e+08  2487.2572      1434.3894    
    764000   500.05407     -1.3150808e+08  2492.0605      1434.4036    
    765000   499.98573     -1.3150771e+08  2496.687       1434.4179    
    766000   499.95074     -1.315079e+08   2482.4531      1434.4321    
    767000   499.95057     -1.3150767e+08  2467.584       1434.4463    
    768000   499.92377     -1.3150766e+08  2479.0937      1434.4606    
    769000   500.02        -1.3150755e+08  2471.7917      1434.4748    
    770000   499.95452     -1.3150733e+08  2481.3979      1434.4891    
    771000   500.07037     -1.31508e+08    2464.0727      1434.5033    
    772000   499.93178     -1.315079e+08   2466.5465      1434.5176    
    773000   500.01454     -1.3150864e+08  2468.2558      1434.5318    
    774000   499.86779     -1.3150778e+08  2477.7045      1434.546     
    775000   500.07918     -1.3150829e+08  2469.6824      1434.5603    
    776000   499.99078     -1.3150774e+08  2461.5501      1434.5745    
    777000   499.92618     -1.3150744e+08  2445.423       1434.5888    
    778000   500.11307     -1.3150738e+08  2440.588       1434.603     
    779000   499.97561     -1.315071e+08   2446.0771      1434.6172    
    780000   500.05314     -1.3150767e+08  2451.0845      1434.6315    
    781000   500.0039      -1.3150766e+08  2454.2498      1434.6457    
    782000   499.99515     -1.3150795e+08  2455.6621      1434.66      
    783000   499.98162     -1.3150819e+08  2449.4251      1434.6742    
    784000   500.00298     -1.3150787e+08  2434.4805      1434.6885    
    785000   499.95805     -1.31507e+08    2430.7942      1434.7027    
    786000   500.06092     -1.3150815e+08  2418.0498      1434.7169    
    787000   499.95886     -1.3150718e+08  2436.9066      1434.7312    
    788000   500.0201      -1.3150726e+08  2430.1623      1434.7454    
    789000   499.96108     -1.3150779e+08  2434.2511      1434.7597    
    790000   499.9519      -1.315076e+08   2433.3697      1434.7739    
    791000   500.01405     -1.31508e+08    2421.4808      1434.7882    
    792000   500.02209     -1.3150755e+08  2420.0613      1434.8024    
    793000   500.03928     -1.315076e+08   2395.5241      1434.8166    
    794000   500.0465      -1.3150719e+08  2412.1074      1434.8309    
    795000   499.96019     -1.3150706e+08  2403.9234      1434.8451    
    796000   500.09797     -1.3150767e+08  2408.7329      1434.8594    
    797000   499.92505     -1.3150715e+08  2398.3377      1434.8736    
    798000   499.95257     -1.315064e+08   2391.4457      1434.8879    
    799000   500.04041     -1.3150712e+08  2394.7497      1434.9021    
    800000   499.99802     -1.3150716e+08  2395.3712      1434.9163    
    801000   500.06113     -1.3150754e+08  2395.7098      1434.9306    
    802000   499.93127     -1.3150689e+08  2400.3733      1434.9448    
    803000   499.98657     -1.3150719e+08  2390.8247      1434.9591    
    804000   499.93339     -1.3150729e+08  2382.5835      1434.9733    
    805000   499.95195     -1.3150694e+08  2381.1545      1434.9876    
    806000   499.94647     -1.3150696e+08  2373.7395      1435.0018    
    807000   500.09243     -1.3150693e+08  2374.0413      1435.016     
    808000   500.04969     -1.3150655e+08  2354.9589      1435.0303    
    809000   499.92918     -1.3150649e+08  2365.6279      1435.0445    
    810000   499.97546     -1.3150605e+08  2360.7143      1435.0588    
    811000   500.03589     -1.315064e+08   2363.4795      1435.073     
    812000   499.97463     -1.3150638e+08  2360.0831      1435.0872    
    813000   499.96552     -1.3150664e+08  2370.0091      1435.1015    
    814000   500.06261     -1.3150688e+08  2353.1439      1435.1157    
    815000   500.01567     -1.3150615e+08  2363.9457      1435.13      
    816000   500.01088     -1.3150626e+08  2354.9159      1435.1442    
    817000   500.09619     -1.3150706e+08  2348.4642      1435.1585    
    818000   500.05486     -1.3150664e+08  2351.3085      1435.1727    
    819000   499.97009     -1.3150597e+08  2338.3848      1435.1869    
    820000   499.99321     -1.3150614e+08  2341.3865      1435.2012    
    821000   499.9654      -1.3150642e+08  2331.1596      1435.2154    
    822000   500.01701     -1.3150634e+08  2340.7697      1435.2297    
    823000   499.98903     -1.3150619e+08  2338.4819      1435.2439    
    824000   499.99572     -1.3150655e+08  2333.4688      1435.2582    
    825000   499.91694     -1.3150597e+08  2334.5343      1435.2724    
    826000   499.99279     -1.3150613e+08  2334.5148      1435.2866    
    827000   500.01416     -1.3150633e+08  2312.91        1435.3009    
    828000   499.94597     -1.3150633e+08  2315.0303      1435.3151    
    829000   499.99998     -1.3150606e+08  2311.7492      1435.3294    
    830000   500.00836     -1.3150595e+08  2312.7851      1435.3436    
    831000   500.02979     -1.3150577e+08  2303.0156      1435.3579    
    832000   500.11731     -1.3150637e+08  2306.6632      1435.3721    
    833000   499.99023     -1.3150574e+08  2308.3546      1435.3863    
    834000   499.93875     -1.3150599e+08  2303.8125      1435.4006    
    835000   499.91339     -1.3150626e+08  2302.7714      1435.4148    
    836000   499.89298     -1.3150621e+08  2302.3471      1435.4291    
    837000   499.91846     -1.3150638e+08  2301.1033      1435.4433    
    838000   499.85351     -1.3150628e+08  2295.6536      1435.4575    
    839000   499.89999     -1.31506e+08    2286.1475      1435.4718    
    840000   500.03302     -1.3150612e+08  2283.1154      1435.486     
    841000   500.04302     -1.3150644e+08  2279.8838      1435.5003    
    842000   500.01401     -1.3150596e+08  2279.8848      1435.5145    
    843000   500.04737     -1.3150546e+08  2290.6434      1435.5288    
    844000   499.99208     -1.3150538e+08  2279.6072      1435.543     
    845000   500.02198     -1.3150604e+08  2264.7248      1435.5572    
    846000   499.90938     -1.3150538e+08  2262.1904      1435.5715    
    847000   500.01978     -1.3150557e+08  2283.4391      1435.5857    
    848000   500.05322     -1.3150569e+08  2271.8151      1435.6       
    849000   500.10318     -1.31506e+08    2277.2025      1435.6142    
    850000   499.96305     -1.3150548e+08  2255.6947      1435.6285    
    851000   500.00601     -1.3150604e+08  2260.2313      1435.6427    
    852000   499.84763     -1.3150533e+08  2242.7444      1435.6569    
    853000   500.01731     -1.3150517e+08  2257.5923      1435.6712    
    854000   500.05221     -1.3150525e+08  2262.6338      1435.6854    
    855000   500.01581     -1.3150515e+08  2263.5143      1435.6997    
    856000   500.13406     -1.315054e+08   2251.0889      1435.7139    
    857000   500.0857      -1.3150489e+08  2239.7382      1435.7282    
    858000   500.00625     -1.3150479e+08  2234.7284      1435.7424    
    859000   499.9466      -1.3150486e+08  2232.1197      1435.7566    
    860000   500.13579     -1.3150494e+08  2237.967       1435.7709    
    861000   500.08848     -1.3150503e+08  2245.471       1435.7851    
    862000   500.01094     -1.3150508e+08  2234.1871      1435.7994    
    863000   499.875       -1.3150485e+08  2229.6637      1435.8136    
    864000   500.01135     -1.3150539e+08  2212.6488      1435.8278    
    865000   499.87816     -1.3150514e+08  2217.0893      1435.8421    
    866000   499.9115      -1.315048e+08   2210.602       1435.8563    
    867000   500.01498     -1.3150502e+08  2215.6869      1435.8706    
    868000   500.0773      -1.3150543e+08  2220.8773      1435.8848    
    869000   499.98121     -1.3150505e+08  2226.63        1435.8991    
    870000   500.03367     -1.315054e+08   2223.3014      1435.9133    
    871000   500.03034     -1.3150556e+08  2202.5722      1435.9275    
    872000   500.01862     -1.3150481e+08  2203.8653      1435.9418    
    873000   500.06006     -1.3150565e+08  2192.1484      1435.956     
    874000   499.9805      -1.3150514e+08  2199.5675      1435.9703    
    875000   499.97831     -1.3150516e+08  2207.9462      1435.9845    
    876000   499.94581     -1.3150525e+08  2215.8495      1435.9988    
    877000   499.99308     -1.3150471e+08  2213.1583      1436.013     
    878000   499.97315     -1.3150472e+08  2191.4723      1436.0272    
    879000   499.91821     -1.3150475e+08  2173.9423      1436.0415    
    880000   499.91764     -1.3150424e+08  2171.4298      1436.0557    
    881000   500.02271     -1.3150462e+08  2178.1866      1436.07      
    882000   500.08667     -1.3150436e+08  2180.5933      1436.0842    
    883000   499.91229     -1.3150445e+08  2185.7479      1436.0985    
    884000   500.04311     -1.3150569e+08  2171.3318      1436.1127    
    885000   499.98673     -1.3150496e+08  2173.2924      1436.1269    
    886000   499.907       -1.3150447e+08  2155.8681      1436.1412    
    887000   500.05352     -1.3150468e+08  2155.361       1436.1554    
    888000   499.93703     -1.3150426e+08  2142.0046      1436.1697    
    889000   499.99964     -1.3150444e+08  2147.5674      1436.1839    
    890000   500.00892     -1.3150431e+08  2164.3471      1436.1982    
    891000   500.01565     -1.3150416e+08  2166.5164      1436.2124    
    892000   500.10003     -1.3150432e+08  2159.7298      1436.2266    
    893000   500.06984     -1.3150469e+08  2147.2306      1436.2409    
    894000   499.88555     -1.3150441e+08  2131.7278      1436.2551    
    895000   500.00228     -1.3150463e+08  2137.8716      1436.2694    
    896000   499.91426     -1.3150388e+08  2148.9083      1436.2836    
    897000   500.06236     -1.3150441e+08  2148.1218      1436.2978    
    898000   500.08199     -1.3150424e+08  2146.6402      1436.3121    
    899000   500.17095     -1.315039e+08   2137.9752      1436.3263    
    900000   500.09721     -1.3150365e+08  2124.9496      1436.3406    
    901000   500.04451     -1.315036e+08   2123.0333      1436.3548    
    902000   499.97194     -1.3150338e+08  2120.9959      1436.3691    
    903000   500.06864     -1.3150365e+08  2126.9299      1436.3833    
    904000   499.95338     -1.3150319e+08  2127.0657      1436.3975    
    905000   500.02067     -1.3150387e+08  2115.0687      1436.4118    
    906000   500.01382     -1.3150358e+08  2111.1134      1436.426     
    907000   500.05746     -1.3150365e+08  2108.5163      1436.4403    
    908000   499.99295     -1.3150394e+08  2112.3347      1436.4545    
    909000   499.97594     -1.3150339e+08  2117.8499      1436.4688    
    910000   500.12495     -1.3150381e+08  2108.1695      1436.483     
    911000   500.00043     -1.3150346e+08  2107.0031      1436.4972    
    912000   499.97551     -1.3150379e+08  2101.3956      1436.5115    
    913000   499.92326     -1.3150353e+08  2096.3861      1436.5257    
    914000   500.01461     -1.3150419e+08  2098.1245      1436.54      
    915000   499.87775     -1.3150332e+08  2092.7335      1436.5542    
    916000   499.92133     -1.3150361e+08  2095.9236      1436.5685    
    917000   499.95006     -1.3150406e+08  2076.0826      1436.5827    
    918000   499.86243     -1.3150377e+08  2076.3215      1436.5969    
    919000   499.82965     -1.3150375e+08  2071.2587      1436.6112    
    920000   500.03889     -1.3150449e+08  2078.3363      1436.6254    
    921000   500.02312     -1.3150399e+08  2081.008       1436.6397    
    922000   500.05924     -1.315036e+08   2078.5787      1436.6539    
    923000   500.03691     -1.3150362e+08  2075.4834      1436.6681    
    924000   499.95582     -1.3150357e+08  2060.9957      1436.6824    
    925000   500.03644     -1.3150349e+08  2069.4912      1436.6966    
    926000   500.10366     -1.3150322e+08  2074.0065      1436.7109    
    927000   500.05042     -1.3150308e+08  2074.6933      1436.7251    
    928000   500.00967     -1.315032e+08   2070.076       1436.7394    
    929000   500.04094     -1.3150327e+08  2072.2782      1436.7536    
    930000   499.9917      -1.315032e+08   2049.8387      1436.7678    
    931000   499.97681     -1.3150305e+08  2042.5872      1436.7821    
    932000   500.04366     -1.3150337e+08  2054.8952      1436.7963    
    933000   499.96497     -1.3150343e+08  2048.4311      1436.8106    
    934000   500.14265     -1.3150372e+08  2045.7422      1436.8248    
    935000   499.95493     -1.3150304e+08  2039.9693      1436.8391    
    936000   500.02256     -1.3150331e+08  2034.7234      1436.8533    
    937000   500.04969     -1.3150269e+08  2031.4159      1436.8675    
    938000   500.00143     -1.31503e+08    2028.7637      1436.8818    
    939000   500.05376     -1.3150307e+08  2036.69        1436.896     
    940000   500.07993     -1.31503e+08    2030.628       1436.9103    
    941000   499.99899     -1.3150309e+08  2028.4514      1436.9245    
    942000   500.09052     -1.3150262e+08  2023.9777      1436.9388    
    943000   500.00526     -1.3150245e+08  2005.5976      1436.953     
    944000   500.00767     -1.3150267e+08  2009.5511      1436.9672    
    945000   500.0472      -1.3150239e+08  2029.5259      1436.9815    
    946000   500.08811     -1.3150253e+08  2034.7186      1436.9957    
    947000   500.09396     -1.3150262e+08  2039.7924      1437.01      
    948000   500.05105     -1.3150247e+08  2014.1585      1437.0242    
    949000   500.05117     -1.315025e+08   2010.3183      1437.0384    
    950000   499.99596     -1.3150203e+08  2000.0113      1437.0527    
    951000   499.99914     -1.3150187e+08  2005.8195      1437.0669    
    952000   500.08116     -1.3150197e+08  1997.3912      1437.0812    
    953000   500.04319     -1.3150203e+08  2001.1552      1437.0954    
    954000   499.99261     -1.3150212e+08  1979.8316      1437.1097    
    955000   500.15637     -1.3150252e+08  1990.7715      1437.1239    
    956000   500.12972     -1.3150265e+08  1986.8275      1437.1381    
    957000   500.05294     -1.3150248e+08  1987.9631      1437.1524    
    958000   499.98231     -1.3150251e+08  1976.8572      1437.1666    
    959000   500.06911     -1.315027e+08   1986.5892      1437.1809    
    960000   500.02792     -1.3150234e+08  1991.3753      1437.1951    
    961000   500.01984     -1.3150246e+08  1975.4698      1437.2094    
    962000   499.94665     -1.3150154e+08  1971.7053      1437.2236    
    963000   499.97141     -1.3150168e+08  1972.1435      1437.2378    
    964000   500.03433     -1.3150219e+08  1969.9506      1437.2521    
    965000   500.00386     -1.3150222e+08  1972.053       1437.2663    
    966000   500.00492     -1.3150178e+08  1961.1008      1437.2806    
    967000   499.98865     -1.3150207e+08  1957.0008      1437.2948    
    968000   499.92616     -1.3150222e+08  1956.4805      1437.3091    
    969000   499.97143     -1.315022e+08   1958.9912      1437.3233    
    970000   499.96511     -1.3150241e+08  1960.7264      1437.3375    
    971000   499.91733     -1.3150242e+08  1962.7382      1437.3518    
    972000   500.05638     -1.3150254e+08  1947.2796      1437.366     
    973000   500.14107     -1.3150225e+08  1935.8154      1437.3803    
    974000   500.03785     -1.3150139e+08  1932.3648      1437.3945    
    975000   500.19129     -1.3150208e+08  1934.5145      1437.4087    
    976000   500.02064     -1.3150154e+08  1945.4281      1437.423     
    977000   499.9826      -1.3150179e+08  1937.5383      1437.4372    
    978000   499.9174      -1.3150211e+08  1917.9129      1437.4515    
    979000   499.91666     -1.3150187e+08  1928.484       1437.4657    
    980000   499.97559     -1.3150187e+08  1928.9734      1437.48      
    981000   499.97523     -1.315021e+08   1931.1981      1437.4942    
    982000   499.98745     -1.3150223e+08  1914.0997      1437.5084    
    983000   499.9819      -1.31502e+08    1909.6565      1437.5227    
    984000   499.95116     -1.3150132e+08  1916.2619      1437.5369    
    985000   499.95399     -1.3150121e+08  1924.4011      1437.5512    
    986000   499.96203     -1.3150129e+08  1915.7478      1437.5654    
    987000   500.01696     -1.3150122e+08  1910.5169      1437.5797    
    988000   500.06765     -1.3150091e+08  1908.0088      1437.5939    
    989000   500.02788     -1.3150075e+08  1898.7391      1437.6081    
    990000   500.09389     -1.3150136e+08  1890.377       1437.6224    
    991000   499.94782     -1.3150085e+08  1889.3448      1437.6366    
    992000   500.04511     -1.3150121e+08  1898.9597      1437.6509    
    993000   500.04676     -1.315013e+08   1890.4994      1437.6651    
    994000   500.09131     -1.315012e+08   1888.7839      1437.6794    
    995000   500.11085     -1.3150061e+08  1889.3789      1437.6936    
    996000   500.08105     -1.3150052e+08  1894.0428      1437.7078    
    997000   500.05987     -1.3150121e+08  1898.2456      1437.7221    
    998000   500.05113     -1.3150108e+08  1884.5894      1437.7363    
    999000   500.04765     -1.3150053e+08  1882.9089      1437.7506    
   1000000   500.07026     -1.3150062e+08  1875.8273      1437.7648    
   1001000   500.1273      -1.315013e+08   1864.4365      1437.7791    
   1002000   500.02085     -1.3150125e+08  1862.0182      1437.7933    
   1003000   499.92895     -1.3150096e+08  1865.8323      1437.8075    
   1004000   499.97327     -1.3150131e+08  1868.0366      1437.8218    
   1005000   500.0071      -1.3150168e+08  1856.2814      1437.836     
   1006000   499.95226     -1.3150117e+08  1854.5425      1437.8503    
   1007000   499.94053     -1.3150087e+08  1848.8279      1437.8645    
   1008000   500.06266     -1.3150116e+08  1852.2839      1437.8787    
   1009000   499.96021     -1.3150095e+08  1861.4447      1437.893     
   1010000   499.99743     -1.3150073e+08  1855.8658      1437.9072    
   1011000   500.05353     -1.3150082e+08  1851.3167      1437.9215    
   1012000   500.08005     -1.3150027e+08  1832.5653      1437.9357    
   1013000   500.05512     -1.3150013e+08  1844.6551      1437.95      
   1014000   500.01654     -1.3150007e+08  1831.9217      1437.9642    
   1015000   500.07013     -1.3150069e+08  1826.9954      1437.9784    
   1016000   500.0737      -1.3150032e+08  1828.56        1437.9927    
   1017000   500.13409     -1.3150048e+08  1845.9966      1438.0069    
   1018000   500.15668     -1.3150031e+08  1838.7247      1438.0212    
   1019000   500.10425     -1.3150046e+08  1832.3345      1438.0354    
   1020000   500.12334     -1.3150036e+08  1827.0856      1438.0497    
   1021000   500.08073     -1.3150013e+08  1827.7044      1438.0639    
   1022000   500.08034     -1.3150013e+08  1824.3565      1438.0781    
   1023000   500.0167      -1.3149993e+08  1813.1816      1438.0924    
   1024000   499.98215     -1.3150004e+08  1815.7749      1438.1066    
   1025000   500.00368     -1.3149984e+08  1818.4281      1438.1209    
   1026000   500.07162     -1.3149981e+08  1810.4305      1438.1351    
   1027000   500.03265     -1.3149995e+08  1799.6874      1438.1494    
   1028000   499.93738     -1.3150002e+08  1802.8768      1438.1636    
   1029000   499.98164     -1.3149967e+08  1798.5267      1438.1778    
   1030000   500.01778     -1.3150007e+08  1797.2341      1438.1921    
   1031000   500.03546     -1.3149994e+08  1793.9654      1438.2063    
   1032000   499.97633     -1.3149957e+08  1799.6223      1438.2206    
   1033000   499.99652     -1.3149945e+08  1791.3074      1438.2348    
   1034000   499.95507     -1.3149986e+08  1785.6312      1438.249     
   1035000   499.93787     -1.3149989e+08  1769.6653      1438.2633    
   1036000   499.96981     -1.3149981e+08  1781.5102      1438.2775    
[...]
   3699000   499.90684     -1.3130872e+08 -3867.7943      1476.2049    
   3700000   500.03825     -1.3130896e+08 -3876.8836      1476.2191    
   3701000   499.95879     -1.3130823e+08 -3871.9152      1476.2334    
   3702000   500.10939     -1.313086e+08  -3878.2848      1476.2476    
   3703000   500.0183      -1.3130889e+08 -3879.341       1476.2619    
   3704000   500.11549     -1.3130868e+08 -3883.5415      1476.2761    
   3705000   499.98843     -1.3130818e+08 -3873.8851      1476.2904    
   3706000   499.96171     -1.3130816e+08 -3882.8985      1476.3046    
   3707000   499.85803     -1.3130836e+08 -3891.3473      1476.3188    
   3708000   499.97206     -1.3130803e+08 -3892.7697      1476.3331    
   3709000   499.91957     -1.3130747e+08 -3886.3927      1476.3473    
   3710000   499.98996     -1.3130749e+08 -3882.4052      1476.3616    
   3711000   500.0164      -1.3130753e+08 -3885.7122      1476.3758    
   3712000   500.05711     -1.3130796e+08 -3893.8359      1476.39      
   3713000   499.91039     -1.3130729e+08 -3899.575       1476.4043    
   3714000   500.007       -1.3130754e+08 -3894.1615      1476.4185    
   3715000   500.05554     -1.3130769e+08 -3904.4514      1476.4328    
   3716000   499.87162     -1.3130657e+08 -3892.2019      1476.447     
   3717000   500.00884     -1.3130717e+08 -3897.052       1476.4613    
   3718000   500.03826     -1.3130727e+08 -3904.778       1476.4755    
   3719000   500.00712     -1.3130715e+08 -3905.9747      1476.4897    
   3720000   500.01352     -1.3130665e+08 -3909.9107      1476.504     
   3721000   500.03985     -1.3130659e+08 -3918.6305      1476.5182    
   3722000   499.99481     -1.3130611e+08 -3918.967       1476.5325    
   3723000   500.06786     -1.3130608e+08 -3917.1438      1476.5467    
   3724000   500.09926     -1.3130628e+08 -3916.6457      1476.561     
   3725000   499.9815      -1.3130569e+08 -3910.3325      1476.5752    
   3726000   499.9906      -1.3130546e+08 -3921.3611      1476.5894    
   3727000   500.11986     -1.3130606e+08 -3928.8312      1476.6037    
   3728000   500.10776     -1.3130573e+08 -3935.7811      1476.6179    
   3729000   500.09829     -1.3130596e+08 -3928.0219      1476.6322    
   3730000   500.03615     -1.3130556e+08 -3921.8734      1476.6464    
   3731000   499.90257     -1.3130597e+08 -3919.3666      1476.6607    
   3732000   499.96697     -1.3130578e+08 -3923.3382      1476.6749    
   3733000   499.94442     -1.3130562e+08 -3927.767       1476.6891    
   3734000   499.88877     -1.3130557e+08 -3933.6668      1476.7034    
   3735000   499.9293      -1.313055e+08  -3932.8334      1476.7176    
   3736000   499.94213     -1.3130499e+08 -3928.031       1476.7319    
   3737000   499.9282      -1.3130484e+08 -3926.457       1476.7461    
   3738000   499.95268     -1.313049e+08  -3941.9355      1476.7604    
   3739000   500.04583     -1.3130538e+08 -3934.5472      1476.7746    
   3740000   500.07268     -1.3130507e+08 -3944.047       1476.7888    
   3741000   499.98162     -1.3130448e+08 -3939.5865      1476.8031    
   3742000   499.97831     -1.3130413e+08 -3940.1974      1476.8173    
   3743000   499.99094     -1.3130393e+08 -3946.3094      1476.8316    
   3744000   500.01019     -1.3130398e+08 -3948.2216      1476.8458    
   3745000   500.13286     -1.3130445e+08 -3945.3652      1476.86      
   3746000   500.01247     -1.3130414e+08 -3949.5478      1476.8743    
   3747000   499.97539     -1.313044e+08  -3954.9105      1476.8885    
   3748000   500.01559     -1.3130413e+08 -3967.8025      1476.9028    
   3749000   499.95524     -1.3130367e+08 -3965.496       1476.917     
   3750000   499.9424      -1.3130399e+08 -3954.7562      1476.9313    
   3751000   499.90937     -1.3130365e+08 -3947.288       1476.9455    
   3752000   499.99478     -1.3130363e+08 -3954.258       1476.9597    
   3753000   499.92276     -1.3130361e+08 -3965.4135      1476.974     
   3754000   499.98618     -1.3130322e+08 -3974.5468      1476.9882    
   3755000   500.04372     -1.3130319e+08 -3966.5229      1477.0025    
   3756000   500.05408     -1.3130348e+08 -3972.7466      1477.0167    
   3757000   500.02027     -1.3130302e+08 -3979.9773      1477.031     
   3758000   500.00755     -1.3130262e+08 -3979.4726      1477.0452    
   3759000   500.05563     -1.3130265e+08 -3987.3145      1477.0594    
   3760000   500.05343     -1.3130253e+08 -3978.4559      1477.0737    
   3761000   500.01319     -1.3130239e+08 -3982.6977      1477.0879    
   3762000   499.90613     -1.3130202e+08 -3986.7617      1477.1022    
   3763000   500.01725     -1.3130224e+08 -3983.7638      1477.1164    
   3764000   499.90169     -1.3130211e+08 -3986.1599      1477.1307    
   3765000   499.89259     -1.3130157e+08 -3972.4856      1477.1449    
   3766000   500.02642     -1.313018e+08  -3987.3344      1477.1591    
   3767000   500           -1.3130176e+08 -3986.9935      1477.1734    
   3768000   500.04065     -1.3130216e+08 -3993.5588      1477.1876    
   3769000   499.9276      -1.3130142e+08 -3995.7877      1477.2019    
   3770000   499.92256     -1.3130159e+08 -3994.5384      1477.2161    
   3771000   499.86663     -1.3130169e+08 -3994.3075      1477.2303    
   3772000   499.87281     -1.3130152e+08 -3985.5776      1477.2446    
   3773000   499.86257     -1.3130145e+08 -3991.3044      1477.2588    
   3774000   499.81873     -1.3130109e+08 -3994.6252      1477.2731    
   3775000   499.84884     -1.3130112e+08 -4013.6082      1477.2873    
   3776000   499.90138     -1.3130073e+08 -4016.4634      1477.3016    
   3777000   500.00985     -1.3130082e+08 -4015.4806      1477.3158    
   3778000   499.93867     -1.3130098e+08 -4013.3337      1477.33      
   3779000   499.98457     -1.3130084e+08 -4004.3517      1477.3443    
   3780000   499.89924     -1.3130046e+08 -4007.178       1477.3585    
   3781000   499.98344     -1.3130061e+08 -4005.8165      1477.3728    
   3782000   500.02612     -1.3130018e+08 -4019.5406      1477.387     
   3783000   499.98467     -1.3129978e+08 -4013.3037      1477.4013    
   3784000   500.21424     -1.313003e+08  -4011.8371      1477.4155    
   3785000   499.92452     -1.3129928e+08 -4009.782       1477.4297    
   3786000   500.04265     -1.3129954e+08 -4012.886       1477.444     
   3787000   500.17403     -1.3129963e+08 -4019.7629      1477.4582    
   3788000   500.15496     -1.3129928e+08 -4015.0569      1477.4725    
   3789000   500.01235     -1.3129906e+08 -4024.2213      1477.4867    
   3790000   500.12611     -1.3129932e+08 -4023.7495      1477.501     
   3791000   500.11702     -1.3129869e+08 -4031.6289      1477.5152    
   3792000   500.10741     -1.3129883e+08 -4020.632       1477.5294    
   3793000   500.12537     -1.3129863e+08 -4028.5193      1477.5437    
   3794000   500.07987     -1.3129899e+08 -4015.4623      1477.5579    
   3795000   500.05816     -1.3129888e+08 -4034.2904      1477.5722    
   3796000   500.00904     -1.3129863e+08 -4045.1047      1477.5864    
   3797000   499.96743     -1.3129815e+08 -4046.5808      1477.6006    
   3798000   500.03695     -1.3129862e+08 -4036.4642      1477.6149    
   3799000   500.08826     -1.3129834e+08 -4026.3108      1477.6291    
   3800000   500.01361     -1.3129763e+08 -4033.1398      1477.6434    
   3801000   499.98356     -1.3129769e+08 -4053.0433      1477.6576    
   3802000   500.02122     -1.3129793e+08 -4055.0516      1477.6719    
   3803000   500.06447     -1.3129797e+08 -4051.3264      1477.6861    
   3804000   500.08779     -1.3129764e+08 -4039.8947      1477.7003    
   3805000   500.02437     -1.3129727e+08 -4049.8453      1477.7146    
   3806000   500.07502     -1.3129729e+08 -4055.3183      1477.7288    
   3807000   499.85494     -1.3129716e+08 -4064.8297      1477.7431    
   3808000   499.92076     -1.3129745e+08 -4054.5792      1477.7573    
   3809000   500.01388     -1.3129745e+08 -4051.9537      1477.7716    
   3810000   499.98458     -1.3129709e+08 -4046.9643      1477.7858    
   3811000   500.02496     -1.3129752e+08 -4059.4042      1477.8       
   3812000   499.96001     -1.3129675e+08 -4065.2836      1477.8143    
   3813000   499.96382     -1.3129622e+08 -4068.1417      1477.8285    
   3814000   500.11848     -1.3129657e+08 -4057.9188      1477.8428    
   3815000   500.03154     -1.3129665e+08 -4067.0316      1477.857     
   3816000   499.90125     -1.3129646e+08 -4057.3282      1477.8713    
   3817000   499.89035     -1.3129653e+08 -4062.8497      1477.8855    
   3818000   499.9323      -1.3129665e+08 -4070.903       1477.8997    
   3819000   499.8821      -1.3129664e+08 -4080.3613      1477.914     
   3820000   499.80841     -1.3129613e+08 -4074.3559      1477.9282    
   3821000   499.97788     -1.3129669e+08 -4084.5785      1477.9425    
   3822000   499.93873     -1.3129606e+08 -4079.6299      1477.9567    
   3823000   499.98395     -1.3129625e+08 -4080.7316      1477.971     
   3824000   499.95446     -1.3129599e+08 -4079.2799      1477.9852    
   3825000   499.97308     -1.312956e+08  -4084.8539      1477.9994    
   3826000   500.0191      -1.3129561e+08 -4088.6923      1478.0137    
   3827000   499.92177     -1.3129544e+08 -4080.7526      1478.0279    
   3828000   499.90174     -1.3129567e+08 -4085.6486      1478.0422    
   3829000   499.95362     -1.3129523e+08 -4080.5516      1478.0564    
   3830000   499.9852      -1.3129528e+08 -4083.1696      1478.0706    
   3831000   499.96268     -1.3129489e+08 -4088.6606      1478.0849    
   3832000   499.94838     -1.3129497e+08 -4102.657       1478.0991    
   3833000   499.93198     -1.3129441e+08 -4108.4757      1478.1134    
   3834000   499.92377     -1.3129445e+08 -4100.782       1478.1276    
   3835000   499.97574     -1.3129465e+08 -4092.1713      1478.1419    
   3836000   499.91325     -1.3129426e+08 -4087.1819      1478.1561    
   3837000   499.87489     -1.312945e+08  -4092.112       1478.1703    
   3838000   499.96762     -1.3129417e+08 -4095.8477      1478.1846    
   3839000   499.90552     -1.3129383e+08 -4112.3815      1478.1988    
   3840000   500.05147     -1.3129377e+08 -4107.1596      1478.2131    
   3841000   500.05131     -1.3129408e+08 -4102.9134      1478.2273    
   3842000   499.94198     -1.3129372e+08 -4096.6098      1478.2416    
   3843000   499.96912     -1.3129393e+08 -4106.4274      1478.2558    
   3844000   499.95871     -1.3129391e+08 -4104.7314      1478.27      
   3845000   499.92168     -1.3129341e+08 -4111.1073      1478.2843    
   3846000   500.04649     -1.3129381e+08 -4105.9572      1478.2985    
   3847000   500.01519     -1.3129356e+08 -4119.8535      1478.3128    
   3848000   500.00859     -1.31293e+08   -4124.9313      1478.327     
   3849000   499.98904     -1.3129301e+08 -4123.0086      1478.3413    
   3850000   499.95533     -1.3129274e+08 -4128.486       1478.3555    
   3851000   500.00473     -1.3129242e+08 -4127.08        1478.3697    
   3852000   499.93258     -1.3129248e+08 -4132.9215      1478.384     
   3853000   500.07988     -1.312925e+08  -4121.567       1478.3982    
   3854000   499.96568     -1.3129195e+08 -4130.7354      1478.4125    
   3855000   500.01276     -1.3129204e+08 -4140.854       1478.4267    
   3856000   500.04706     -1.312916e+08  -4139.9267      1478.4409    
   3857000   500.09379     -1.3129171e+08 -4142.0795      1478.4552    
   3858000   499.9724      -1.3129109e+08 -4124.1623      1478.4694    
   3859000   500.04932     -1.3129176e+08 -4138.7542      1478.4837    
   3860000   500.13548     -1.3129157e+08 -4132.6492      1478.4979    
   3861000   499.98483     -1.3129156e+08 -4131.2475      1478.5122    
   3862000   499.99061     -1.3129173e+08 -4148.6396      1478.5264    
   3863000   499.97184     -1.3129191e+08 -4149.427       1478.5406    
   3864000   499.94052     -1.3129178e+08 -4150.7424      1478.5549    
   3865000   499.91371     -1.312915e+08  -4153.5135      1478.5691    
   3866000   499.96217     -1.312914e+08  -4135.4792      1478.5834    
   3867000   499.9826      -1.3129122e+08 -4144.85        1478.5976    
   3868000   499.90824     -1.3129105e+08 -4148.4313      1478.6119    
   3869000   499.86869     -1.3129102e+08 -4162.4234      1478.6261    
   3870000   499.96538     -1.3129132e+08 -4145.8791      1478.6403    
   3871000   499.88365     -1.312907e+08  -4151.3976      1478.6546    
   3872000   499.92542     -1.3129113e+08 -4143.2992      1478.6688    
   3873000   499.92861     -1.3129097e+08 -4152.7086      1478.6831    
   3874000   499.95789     -1.3129032e+08 -4157.4656      1478.6973    
   3875000   499.91013     -1.3128998e+08 -4160.964       1478.7116    
   3876000   500.0332      -1.3129073e+08 -4156.7469      1478.7258    
   3877000   499.94889     -1.3129045e+08 -4157.157       1478.74      
   3878000   499.92692     -1.3129024e+08 -4161.753       1478.7543    
   3879000   499.9707      -1.3128991e+08 -4165.6053      1478.7685    
   3880000   499.92296     -1.3128973e+08 -4169.0316      1478.7828    
   3881000   499.92418     -1.3128916e+08 -4167.758       1478.797     
   3882000   499.9541      -1.3128971e+08 -4177.7316      1478.8112    
   3883000   499.9879      -1.3128965e+08 -4179.9293      1478.8255    
   3884000   499.93548     -1.3128906e+08 -4176.0988      1478.8397    
   3885000   499.94967     -1.312887e+08  -4183.121       1478.854     
   3886000   500.0538      -1.312889e+08  -4184.8086      1478.8682    
   3887000   499.95857     -1.3128829e+08 -4185.3087      1478.8825    
   3888000   499.94878     -1.3128881e+08 -4192.6341      1478.8967    
   3889000   500.05134     -1.3128863e+08 -4187.3021      1478.9109    
   3890000   500.00156     -1.3128857e+08 -4197.4758      1478.9252    
   3891000   500.09898     -1.312885e+08  -4189.9214      1478.9394    
   3892000   499.95967     -1.3128842e+08 -4193.4417      1478.9537    
   3893000   500.02647     -1.3128825e+08 -4186.1883      1478.9679    
   3894000   500.00454     -1.3128833e+08 -4185.6918      1478.9822    
   3895000   499.92956     -1.3128791e+08 -4183.7698      1478.9964    
   3896000   499.98145     -1.3128792e+08 -4193.9912      1479.0106    
   3897000   500.06309     -1.3128837e+08 -4201.7106      1479.0249    
   3898000   500.04057     -1.3128752e+08 -4194.0016      1479.0391    
   3899000   500.04577     -1.3128746e+08 -4196.745       1479.0534    
   3900000   500.02102     -1.3128781e+08 -4200.0304      1479.0676    
   3901000   499.9834      -1.3128764e+08 -4200.3524      1479.0819    
   3902000   500.08861     -1.3128702e+08 -4195.3786      1479.0961    
   3903000   500.08057     -1.3128719e+08 -4211.7893      1479.1103    
   3904000   500.00555     -1.312867e+08  -4218.2203      1479.1246    
   3905000   500.0157      -1.3128623e+08 -4209.46        1479.1388    
   3906000   500.01662     -1.3128613e+08 -4211.8277      1479.1531    
   3907000   500.17373     -1.3128645e+08 -4214.6949      1479.1673    
   3908000   500.04328     -1.3128676e+08 -4215.787       1479.1815    
   3909000   500.02933     -1.3128637e+08 -4217.1642      1479.1958    
   3910000   500.02689     -1.3128677e+08 -4223.2024      1479.21      
   3911000   499.94381     -1.3128638e+08 -4226.0483      1479.2243    
   3912000   499.99404     -1.3128663e+08 -4228.2397      1479.2385    
   3913000   499.93018     -1.3128631e+08 -4228.3024      1479.2528    
   3914000   499.97908     -1.312863e+08  -4209.5013      1479.267     
   3915000   499.97664     -1.3128631e+08 -4216.4074      1479.2812    
   3916000   499.94417     -1.3128614e+08 -4221.3043      1479.2955    
   3917000   499.99084     -1.3128542e+08 -4225.9123      1479.3097    
   3918000   500.05205     -1.3128485e+08 -4243.7692      1479.324     
   3919000   500.03085     -1.3128471e+08 -4243.764       1479.3382    
   3920000   499.989       -1.3128521e+08 -4237.6401      1479.3525    
   3921000   500.02269     -1.312851e+08  -4232.836       1479.3667    
   3922000   500.08835     -1.3128527e+08 -4235.951       1479.3809    
   3923000   499.94501     -1.3128424e+08 -4242.0978      1479.3952    
   3924000   499.90315     -1.3128467e+08 -4240.0953      1479.4094    
   3925000   499.99498     -1.3128481e+08 -4243.9897      1479.4237    
   3926000   499.88499     -1.3128482e+08 -4252.5739      1479.4379    
   3927000   499.8604      -1.3128428e+08 -4240.7068      1479.4522    
   3928000   499.88786     -1.3128421e+08 -4250.6081      1479.4664    
   3929000   499.92277     -1.312845e+08  -4252.341       1479.4806    
   3930000   499.93028     -1.3128413e+08 -4248.3408      1479.4949    
   3931000   499.96195     -1.3128399e+08 -4251.8218      1479.5091    
   3932000   500.01973     -1.3128361e+08 -4251.8017      1479.5234    
   3933000   499.99288     -1.3128357e+08 -4258.8277      1479.5376    
   3934000   500.11835     -1.3128406e+08 -4257.1165      1479.5519    
   3935000   499.94867     -1.3128321e+08 -4259.4147      1479.5661    
   3936000   499.96254     -1.3128336e+08 -4262.4142      1479.5803    
   3937000   499.96993     -1.312832e+08  -4268.0335      1479.5946    
   3938000   499.99514     -1.312827e+08  -4264.1559      1479.6088    
   3939000   500.06146     -1.3128327e+08 -4268.2731      1479.6231    
   3940000   499.98272     -1.3128295e+08 -4258.9247      1479.6373    
   3941000   500.12337     -1.3128373e+08 -4274.8598      1479.6515    
   3942000   499.99379     -1.312832e+08  -4271.6568      1479.6658    
   3943000   499.94236     -1.3128242e+08 -4270.3994      1479.68      
   3944000   500.08313     -1.3128241e+08 -4268.0005      1479.6943    
   3945000   500.06807     -1.3128236e+08 -4264.3937      1479.7085    
   3946000   499.99011     -1.312821e+08  -4265.8777      1479.7228    
   3947000   500.00935     -1.3128161e+08 -4271.155       1479.737     
   3948000   500.04179     -1.3128206e+08 -4271.0455      1479.7512    
   3949000   500.07929     -1.3128191e+08 -4265.5151      1479.7655    
   3950000   500.14859     -1.3128199e+08 -4265.0444      1479.7797    
   3951000   500.03863     -1.3128194e+08 -4288.9877      1479.794     
   3952000   500.01298     -1.3128129e+08 -4288.7457      1479.8082    
   3953000   500.00673     -1.3128152e+08 -4295.9427      1479.8225    
   3954000   500.01698     -1.3128156e+08 -4280.6491      1479.8367    
   3955000   499.91343     -1.3128148e+08 -4290.5064      1479.8509    
   3956000   500.04994     -1.3128141e+08 -4281.6987      1479.8652    
   3957000   499.98769     -1.3128085e+08 -4295.3961      1479.8794    
   3958000   500.10673     -1.3128105e+08 -4288.496       1479.8937    
   3959000   500.05268     -1.3128082e+08 -4294.8501      1479.9079    
   3960000   500.1104      -1.3128104e+08 -4286.5468      1479.9222    
   3961000   499.97623     -1.3128037e+08 -4292.7833      1479.9364    
   3962000   499.9705      -1.3128002e+08 -4300.7409      1479.9506    
   3963000   499.97232     -1.3127991e+08 -4308.2004      1479.9649    
   3964000   499.93212     -1.3128068e+08 -4303.2229      1479.9791    
   3965000   500.0419      -1.3128058e+08 -4305.9329      1479.9934    
   3966000   499.99004     -1.3128077e+08 -4297.2972      1480.0076    
   3967000   499.95323     -1.3128022e+08 -4310.7634      1480.0218    
   3968000   499.95531     -1.3128023e+08 -4320.8898      1480.0361    
   3969000   499.95332     -1.3127979e+08 -4326.3703      1480.0503    
   3970000   499.9715      -1.312796e+08  -4318.3513      1480.0646    
   3971000   500.1521      -1.3127998e+08 -4306.9265      1480.0788    
   3972000   500.08644     -1.3127923e+08 -4314.8929      1480.0931    
   3973000   500.10709     -1.3127917e+08 -4319.8751      1480.1073    
   3974000   500.03333     -1.3127846e+08 -4329.8905      1480.1215    
   3975000   500.06727     -1.3127872e+08 -4328.8301      1480.1358    
