LAMMPS (23 Jun 2022)
KOKKOS mode is enabled (src/KOKKOS/kokkos.cpp:105)
  will use up to 4 GPU(s) per node
  using 1 OpenMP thread(s) per MPI task
package kokkos
package kokkos neigh half newton off
#LAMMPS input file

# ------------------------ INITIALIZATION ----------------------------
processors    * * *
units         metal
dimension    3
boundary    p    p    p
atom_style   charge
atom_modify map array sort 0 1

#--------------------------- LAMMPS Data File--------------------------

read_data    relaxed_step.lmp #reset_relaxed.lmp # model_4.lmp # pre_strained.lmp # High_sep_Cu_45.lmp # Cu_111_FR_45_MIN.lmp
Reading data file ...
  orthogonal box = (-314.8477 -522.43942 600) to (1109.3869 540.14923 1100)
  4 by 4 by 2 MPI processor grid
  reading atoms ...
  37948320 atoms
  reading velocities ...
  37948320 velocities
  read_data CPU = 138.625 seconds
#read_dump   dump.min_1862000.lammpstrj 1862000 x y z vx vy vz
variable  temp equal 300
variable  temp_init equal ${temp}*2
variable  temp_init equal 300*2
variable  sratex equal 5e-6 # in 1/ps (0.5 strain after 10ns)
# ------------------------ FORCE FIELDS ------------------------------
pair_style    eam/alloy
pair_coeff    * * Cu01.eam.alloy.txt Cu # Cu

#------------------------- SETTINGS ---------------------------------

#change_box        all x scale 1.015 remap units box

compute csym all centro/atom fcc
#compute peratom all pe/atom

# compute stresses
#compute       sf all stress/atom NULL

#-------------For Lorentz Forces from QEq----------------------------
# Apply forces
#variable qfx atomfile input_fx_new.txt
#variable qfy atomfile input_fy_new.txt
#variable qfz atomfile input_fz_new.txt
#variable qe atom  -(x*v_qfx+y*v_qfy+z*v_qfz)

#fix force_q1 all addforce v_qfx v_qfy v_qfz energy v_qe
#fix_modify force_q1 energy yes

#delete_atoms group exclude
#fix freez hold setforce 0 0 0
#fix_modify force_q2 energy yes
thermo 1000
thermo_style custom step temp pe press lx
thermo_modify flush yes
#min_style fire
#minimize 0.0 1e-4 100000 100000
#--------Thermal Relax---------------------------
velocity all create ${temp_init} 100 rot no dist gaussian
velocity all create 600 100 rot no dist gaussian
timestep  0.002
fix 1 all langevin ${temp} ${temp} 5 100
fix 1 all langevin 300 ${temp} 5 100
fix 1 all langevin 300 300 5 100
fix ensemble all nve
run 50000
Neighbor list info ...
  update every 1 steps, delay 10 steps, check yes
  max neighbors/atom: 2000, page size: 100000
  master list distance cutoff = 7.506786
  ghost atom cutoff = 7.506786
  binsize = 7.506786, bins = 190 142 67
  2 neighbor lists, perpetual/occasional/extra = 1 1 0
  (1) pair eam/alloy/kk, perpetual
      attributes: half, newton off, kokkos_device
      pair build: half/bin/kk/device
      stencil: full/bin/3d
      bin: kk/device
  (2) compute centro/atom, occasional
      attributes: full, newton off
      pair build: full/bin/atomonly
      stencil: full/bin/3d
      bin: standard
Per MPI rank memory allocation (min/avg/max) = 419 | 460.3 | 502.1 Mbytes
   Step          Temp          PotEng         Press            Lx      
         0   600           -1.3404495e+08  3811.5682      1424.2346    
      1000   300.25895     -1.3257578e+08  6370.6112      1424.2346    
      2000   298.37702     -1.3256494e+08  2448.7193      1424.2346    
      3000   296.0465      -1.3254195e+08 -821.22435      1424.2346    
      4000   298.57134     -1.3254321e+08  566.56728      1424.2346    
      5000   300.3229      -1.3255067e+08  2387.2662      1424.2346    
      6000   300.81704     -1.3255587e+08  4047.6838      1424.2346    
      7000   300.27835     -1.32556e+08    3672.3325      1424.2346    
      8000   299.8531      -1.3255391e+08  2692.2622      1424.2346    
      9000   299.33063     -1.3254906e+08  1742.474       1424.2346    
     10000   299.51013     -1.3254688e+08  1671.9399      1424.2346    
     11000   300.00016     -1.3254855e+08  2205.7622      1424.2346    
     12000   300.27021     -1.3255071e+08  2757.6234      1424.2346    
     13000   300.31704     -1.3255212e+08  2986.4534      1424.2346    
     14000   300.11956     -1.3255186e+08  2770.4487      1424.2346    
     15000   299.9473      -1.3255101e+08  2503.0125      1424.2346    
     16000   299.856       -1.3254976e+08  2318.3957      1424.2346    
     17000   299.96848     -1.3255009e+08  2426.7989      1424.2346    
     18000   300.02304     -1.3255031e+08  2549.4483      1424.2346    
     19000   300.12771     -1.3255104e+08  2673.835       1424.2346    
     20000   299.96673     -1.3255088e+08  2626.8349      1424.2346    
     21000   300.01892     -1.3255113e+08  2554.293       1424.2346    
     22000   299.88535     -1.3255044e+08  2472.6789      1424.2346    
     23000   299.93904     -1.325504e+08   2479.8974      1424.2346    
     24000   300.02762     -1.3255069e+08  2501.6939      1424.2346    
     25000   300.01253     -1.3255051e+08  2548.9174      1424.2346    
     26000   300.00924     -1.3255062e+08  2558.1839      1424.2346    
     27000   299.99786     -1.3255063e+08  2540.3643      1424.2346    
     28000   300.03522     -1.3255074e+08  2523.0571      1424.2346    
     29000   299.94128     -1.3255031e+08  2514.5961      1424.2346    
     30000   300.03309     -1.3255083e+08  2528.7466      1424.2346    
     31000   300.00216     -1.3255049e+08  2539.4695      1424.2346    
     32000   299.94669     -1.3255045e+08  2547.225       1424.2346    
     33000   299.92761     -1.3255058e+08  2541.3452      1424.2346    
     34000   299.99622     -1.3255097e+08  2530.0049      1424.2346    
     35000   300.01114     -1.3255059e+08  2527.9279      1424.2346    
     36000   299.99901     -1.325504e+08   2529.7944      1424.2346    
     37000   299.97885     -1.3255068e+08  2534.8789      1424.2346    
     38000   299.9416      -1.3255087e+08  2539.6698      1424.2346    
     39000   300.01797     -1.3255084e+08  2541.8726      1424.2346    
     40000   300.003       -1.3255098e+08  2536.8273      1424.2346    
     41000   300.0034      -1.3255068e+08  2542.1183      1424.2346    
     42000   300.03838     -1.3255054e+08  2533.598       1424.2346    
     43000   300.05981     -1.3255058e+08  2537.9834      1424.2346    
     44000   299.99459     -1.3255051e+08  2537.0725      1424.2346    
     45000   300.0213      -1.3255088e+08  2540.5753      1424.2346    
     46000   300.00752     -1.3255063e+08  2530.8775      1424.2346    
     47000   299.98687     -1.3255058e+08  2534.6802      1424.2346    
     48000   300.01134     -1.3255084e+08  2525.2406      1424.2346    
     49000   300.01467     -1.3255091e+08  2533.462       1424.2346    
     50000   300.01298     -1.3255088e+08  2536.7543      1424.2346    
Loop time of 648.668 on 32 procs for 50000 steps with 37948320 atoms

Performance: 13.320 ns/day, 1.802 hours/ns, 77.081 timesteps/s
72.0% CPU use with 32 MPI tasks x 1 OpenMP threads

MPI task timing breakdown:
Section |  min time  |  avg time  |  max time  |%varavg| %total
---------------------------------------------------------------
Pair    | 227.71     | 238.17     | 247.59     |  40.6 | 36.72
Neigh   | 18.836     | 27.579     | 37.397     | 113.3 |  4.25
Comm    | 39.227     | 48.403     | 57.673     | 124.0 |  7.46
Output  | 0.011209   | 0.64863    | 1.0154     |  38.3 |  0.10
Modify  | 184.93     | 257.94     | 331.57     | 434.0 | 39.76
Other   |            | 75.92      |            |       | 11.70

Nlocal:    1.18588e+06 ave 1.50643e+06 max      854101 min
Histogram: 16 0 0 0 0 0 0 0 0 16
Nghost:         185572 ave      218096 max      152311 min
Histogram: 16 0 0 0 0 0 0 0 0 16
Neighs:    8.55408e+07 ave  1.0867e+08 max 6.16084e+07 min
Histogram: 16 0 0 0 0 0 0 0 0 16
FullNghs:            0 ave           0 max           0 min
Histogram: 32 0 0 0 0 0 0 0 0 0

Total # of neighbors = 2.7373071e+09
Ave neighs/atom = 72.132497
Neighbor list builds = 710
Dangerous builds = 0
unfix ensemble
write_data ${temp}_relaxed_config.lmp
write_data 300_relaxed_config.lmp
System init for write_data ...
#unfix freez
######################################
## NVT Langevin ##
#variable a loop 50
#label loop

#variable Ti equal ${temp}+($a-1)*4
#variable Tf equal ${temp}+$a*4
#reset_ids
#change_box all x scale ${eps} remap units box
fix        2 all deform 1 x erate ${sratex} units box remap x
fix        2 all deform 1 x erate 5e-06 units box remap x
#fix 1 all langevin ${temp} ${temp} 5 98

# Write dump file
#dump        shear all custom 500000 dump.min_*.lammpstrj id x y z # vx vy vz

#dump        defect all custom 100 dump.defect_*.lammpstrj id x y z c_csym
#dump_modify defect thresh c_csym <= 10 thresh c_csym > 4

fix         ensemble all nve
run 5000000
Per MPI rank memory allocation (min/avg/max) = 419 | 460.2 | 502 Mbytes
   Step          Temp          PotEng         Press            Lx      
     50000   300.01298     -1.3255088e+08  2536.7543      1424.2346    
     51000   299.91689     -1.3255082e+08  2529.5738      1424.2488    
     52000   299.93426     -1.325507e+08   2515.6277      1424.2631    
     53000   299.95234     -1.3255058e+08  2521.9772      1424.2773    
     54000   300.0068      -1.3255074e+08  2516.8032      1424.2915    
     55000   299.95991     -1.3255044e+08  2517.3604      1424.3058    
     56000   299.99412     -1.3255017e+08  2522.1595      1424.32      
     57000   300.04577     -1.325506e+08   2512.6471      1424.3343    
     58000   299.91913     -1.3255028e+08  2510.0522      1424.3485    
     59000   299.992       -1.3255099e+08  2494.2343      1424.3628    
     60000   299.9491      -1.3255063e+08  2500.8131      1424.377     
     61000   299.99435     -1.3255048e+08  2501.6409      1424.3912    
     62000   300.02705     -1.3255085e+08  2500.1215      1424.4055    
     63000   299.97423     -1.3255059e+08  2495.0527      1424.4197    
     64000   299.98177     -1.325508e+08   2490.0801      1424.434     
     65000   300.0734      -1.3255095e+08  2489.1247      1424.4482    
     66000   299.95986     -1.325504e+08   2491.1276      1424.4625    
     67000   299.99233     -1.3255066e+08  2488.4103      1424.4767    
     68000   299.98377     -1.3255067e+08  2478.9678      1424.4909    
     69000   299.95054     -1.3255062e+08  2459.6552      1424.5052    
     70000   300.00296     -1.3255081e+08  2471.9029      1424.5194    
     71000   300.00333     -1.3255064e+08  2479.2813      1424.5337    
     72000   300.00772     -1.3255064e+08  2489.438       1424.5479    
     73000   300.00755     -1.3255101e+08  2474.6398      1424.5622    
     74000   299.98978     -1.3255074e+08  2463.7803      1424.5764    
     75000   300.00968     -1.3255067e+08  2446.2347      1424.5906    
     76000   299.95866     -1.3255057e+08  2443.4783      1424.6049    
     77000   299.97563     -1.325507e+08   2450.5014      1424.6191    
     78000   299.99519     -1.3255081e+08  2458.4865      1424.6334    
     79000   299.91386     -1.3255053e+08  2459.2799      1424.6476    
     80000   300.03386     -1.325509e+08   2445.687       1424.6618    
     81000   299.96716     -1.3255086e+08  2430.4204      1424.6761    
     82000   299.99893     -1.3255089e+08  2426.6597      1424.6903    
     83000   299.9521      -1.3255107e+08  2429.3353      1424.7046    
     84000   299.95779     -1.3255094e+08  2437.1595      1424.7188    
     85000   299.94516     -1.3255075e+08  2437.5737      1424.7331    
     86000   299.99698     -1.3255102e+08  2432.8901      1424.7473    
     87000   299.96123     -1.3255069e+08  2421.4309      1424.7615    
     88000   300.01886     -1.3255062e+08  2418.3872      1424.7758    
     89000   300.03119     -1.3255079e+08  2419.6348      1424.79      
     90000   299.96761     -1.3255044e+08  2419.6253      1424.8043    
     91000   300.03109     -1.3255041e+08  2418.8653      1424.8185    
     92000   299.99533     -1.3255043e+08  2415.0405      1424.8328    
     93000   299.97831     -1.3255033e+08  2408.0631      1424.847     
     94000   300.01571     -1.3255064e+08  2406.0356      1424.8612    
     95000   299.94127     -1.3255053e+08  2397.6475      1424.8755    
     96000   300.01104     -1.3255059e+08  2396.4789      1424.8897    
     97000   300.0208      -1.3255037e+08  2394.9336      1424.904     
     98000   300.02447     -1.3255058e+08  2393.0435      1424.9182    
     99000   300.00688     -1.3255066e+08  2396.631       1424.9325    
    100000   300.00427     -1.325508e+08   2384.2526      1424.9467    
    101000   299.94821     -1.3255064e+08  2387.2188      1424.9609    
    102000   299.96497     -1.325509e+08   2384.9449      1424.9752    
    103000   299.90265     -1.3255064e+08  2384.8147      1424.9894    
    104000   299.96253     -1.3255055e+08  2386.9624      1425.0037    
    105000   299.95724     -1.3255048e+08  2371.3477      1425.0179    
    106000   299.95842     -1.3255044e+08  2373.7199      1425.0322    
    107000   299.97443     -1.3255059e+08  2370.0842      1425.0464    
    108000   299.97443     -1.3255081e+08  2367.9594      1425.0606    
    109000   299.95981     -1.3255049e+08  2365.6378      1425.0749    
    110000   299.93835     -1.325506e+08   2360.4207      1425.0891    
    111000   299.92874     -1.3255074e+08  2352.5413      1425.1034    
    112000   300.0249      -1.3255062e+08  2347.3169      1425.1176    
    113000   300.02511     -1.3255052e+08  2351.9076      1425.1318    
    114000   299.98268     -1.3255036e+08  2350.3999      1425.1461    
    115000   300.00191     -1.3255054e+08  2350.3411      1425.1603    
    116000   299.96866     -1.3255048e+08  2349.4186      1425.1746    
    117000   299.97308     -1.3255063e+08  2350.437       1425.1888    
    118000   299.96695     -1.3255072e+08  2343.0521      1425.2031    
    119000   299.9887      -1.3255054e+08  2333.199       1425.2173    
    120000   300.01749     -1.3255061e+08  2330.5241      1425.2315    
    121000   299.94979     -1.3255044e+08  2337.7135      1425.2458    
    122000   299.93979     -1.3255052e+08  2333.7959      1425.26      
    123000   299.99612     -1.3255084e+08  2330.4354      1425.2743    
    124000   299.95182     -1.3255043e+08  2321.3971      1425.2885    
    125000   299.99319     -1.3255065e+08  2315.2016      1425.3028    
    126000   299.93024     -1.3255065e+08  2312.2195      1425.317     
    127000   300.01487     -1.3255051e+08  2313.0747      1425.3312    
    128000   299.95164     -1.3255048e+08  2307.4286      1425.3455    
    129000   300.01432     -1.3255035e+08  2310.7906      1425.3597    
    130000   300.00086     -1.3255043e+08  2313.3823      1425.374     
    131000   300.00914     -1.3255054e+08  2306.6226      1425.3882    
    132000   300.00441     -1.3255037e+08  2305.8136      1425.4025    
    133000   300.00174     -1.325502e+08   2296.2491      1425.4167    
    134000   300.02201     -1.3255021e+08  2294.7668      1425.4309    
    135000   299.98714     -1.3255011e+08  2290.9694      1425.4452    
    136000   300.04919     -1.3255037e+08  2282.0732      1425.4594    
    137000   299.9971      -1.3255016e+08  2273.2591      1425.4737    
    138000   299.95104     -1.3255046e+08  2274.9879      1425.4879    
    139000   299.9637      -1.3255082e+08  2281.329       1425.5021    
    140000   299.96229     -1.3255081e+08  2286.836       1425.5164    
    141000   299.97544     -1.325508e+08   2287.7806      1425.5306    
    142000   299.99582     -1.3255043e+08  2283.5367      1425.5449    
    143000   300.0273      -1.3255024e+08  2271.4027      1425.5591    
    144000   299.99928     -1.3255002e+08  2265.2796      1425.5734    
    145000   300.01194     -1.3255009e+08  2258.0403      1425.5876    
    146000   300.01948     -1.3255026e+08  2259.013       1425.6018    
    147000   300.04487     -1.3254997e+08  2258.1981      1425.6161    
    148000   299.98304     -1.3254997e+08  2247.1538      1425.6303    
    149000   300.03491     -1.3255036e+08  2244.3543      1425.6446    
    150000   299.96295     -1.3255022e+08  2244.0081      1425.6588    
    151000   300.03663     -1.3255048e+08  2244.0491      1425.6731    
    152000   300.03263     -1.3255047e+08  2245.1642      1425.6873    
    153000   300.01374     -1.3255009e+08  2247.1541      1425.7015    
    154000   299.99168     -1.325503e+08   2235.6506      1425.7158    
    155000   299.95739     -1.3255016e+08  2236.9152      1425.73      
    156000   300.0552      -1.3255029e+08  2235.9887      1425.7443    
    157000   300.0847      -1.3255065e+08  2235.8028      1425.7585    
    158000   300.05539     -1.3255018e+08  2229.749       1425.7728    
    159000   299.97216     -1.3255029e+08  2221.8761      1425.787     
    160000   300.02357     -1.325501e+08   2214.339       1425.8012    
    161000   300.01622     -1.3255031e+08  2218.9898      1425.8155    
    162000   299.98805     -1.3255006e+08  2225.4712      1425.8297    
    163000   299.98359     -1.3255015e+08  2220.4083      1425.844     
    164000   300.04863     -1.325503e+08   2205.2429      1425.8582    
    165000   299.93611     -1.3254999e+08  2195.2804      1425.8724    
    166000   300.00974     -1.3255053e+08  2199.6028      1425.8867    
    167000   299.91998     -1.3255051e+08  2202.4646      1425.9009    
    168000   299.97192     -1.3255064e+08  2196.9839      1425.9152    
    169000   299.98734     -1.3255052e+08  2198.9333      1425.9294    
    170000   299.94926     -1.3254997e+08  2191.8011      1425.9437    
    171000   299.93043     -1.325501e+08   2196.3575      1425.9579    
    172000   299.97614     -1.3255012e+08  2190.9804      1425.9721    
    173000   299.93129     -1.3255033e+08  2193.352       1425.9864    
    174000   299.96668     -1.3255034e+08  2185.4551      1426.0006    
    175000   299.99485     -1.3255003e+08  2175.1599      1426.0149    
    176000   299.98075     -1.3255012e+08  2170.3931      1426.0291    
    177000   300.02129     -1.3255031e+08  2163.0227      1426.0434    
    178000   300.03374     -1.3255002e+08  2173.3115      1426.0576    
    179000   300.03515     -1.3255016e+08  2168.9537      1426.0718    
    180000   299.9998      -1.3255034e+08  2159.3675      1426.0861    
    181000   300.02074     -1.3255029e+08  2154.2701      1426.1003    
    182000   299.99027     -1.3255036e+08  2151.1923      1426.1146    
    183000   299.99154     -1.3255041e+08  2154.1072      1426.1288    
    184000   300.06448     -1.3255037e+08  2151.4048      1426.1431    
    185000   300.01344     -1.3255003e+08  2146.2761      1426.1573    
    186000   300.05779     -1.3255036e+08  2142.417       1426.1715    
    187000   299.97165     -1.3255008e+08  2138.2698      1426.1858    
    188000   300.00783     -1.3255013e+08  2142.0656      1426.2       
    189000   300.03116     -1.325503e+08   2138.5413      1426.2143    
    190000   299.98759     -1.3255005e+08  2152.361       1426.2285    
    191000   299.94552     -1.3254991e+08  2144.1606      1426.2428    
    192000   299.96494     -1.3254985e+08  2145.3774      1426.257     
    193000   300.07981     -1.3255026e+08  2126.3169      1426.2712    
    194000   299.96501     -1.3255018e+08  2119.5965      1426.2855    
    195000   299.94663     -1.3255005e+08  2108.4574      1426.2997    
    196000   300.03697     -1.325503e+08   2115.1303      1426.314     
    197000   299.97109     -1.325501e+08   2127.141       1426.3282    
    198000   300.02979     -1.3254999e+08  2125.5689      1426.3424    
    199000   300.04214     -1.3255026e+08  2120.1668      1426.3567    
    200000   300.06829     -1.325503e+08   2107.6458      1426.3709    
    201000   300.0376      -1.3255025e+08  2096.899       1426.3852    
    202000   300.00052     -1.3254994e+08  2100.8835      1426.3994    
    203000   299.97332     -1.3255004e+08  2106.1893      1426.4137    
    204000   299.96156     -1.3255007e+08  2113.0819      1426.4279    
    205000   300.02271     -1.3255011e+08  2102.1204      1426.4421    
    206000   299.96581     -1.3254978e+08  2088.1993      1426.4564    
    207000   299.98496     -1.3255022e+08  2073.1308      1426.4706    
    208000   300.00948     -1.3255024e+08  2074.9671      1426.4849    
    209000   300.01725     -1.3254993e+08  2078.8028      1426.4991    
    210000   300.02366     -1.3254997e+08  2087.3122      1426.5134    
    211000   300.03425     -1.3254996e+08  2084.9683      1426.5276    
    212000   299.98836     -1.3254978e+08  2079.4821      1426.5418    
    213000   299.96364     -1.3254972e+08  2069.3007      1426.5561    
    214000   300.00862     -1.3254967e+08  2056.5316      1426.5703    
    215000   300.03899     -1.3254969e+08  2054.8382      1426.5846    
    216000   300.05462     -1.3255002e+08  2055.2981      1426.5988    
    217000   300.09681     -1.3255016e+08  2059.0367      1426.6131    
    218000   299.95272     -1.3254965e+08  2059.7867      1426.6273    
    219000   300.09092     -1.3255e+08     2066.947       1426.6415    
    220000   300.02777     -1.325499e+08   2053.351       1426.6558    
    221000   300.0292      -1.325501e+08   2044.4427      1426.67      
    222000   300.02797     -1.3255003e+08  2040.9747      1426.6843    
    223000   300.01061     -1.3254983e+08  2036.5755      1426.6985    
    224000   299.98034     -1.3254989e+08  2036.1116      1426.7127    
    225000   299.95085     -1.3254968e+08  2034.9054      1426.727     
    226000   299.95363     -1.3254996e+08  2041.4438      1426.7412    
    227000   299.95034     -1.3254993e+08  2026.3095      1426.7555    
    228000   299.99877     -1.3254991e+08  2026.5734      1426.7697    
    229000   299.97511     -1.3254976e+08  2020.9188      1426.784     
    230000   300.03012     -1.3254968e+08  2033.5391      1426.7982    
    231000   299.98809     -1.3254958e+08  2024.1661      1426.8124    
    232000   299.94775     -1.325495e+08   2020.7965      1426.8267    
    233000   300.00315     -1.325499e+08   2014.5869      1426.8409    
    234000   300.03709     -1.3254971e+08  2014.6531      1426.8552    
    235000   299.99297     -1.3254971e+08  2014.0782      1426.8694    
    236000   300.04243     -1.3254996e+08  2009.5669      1426.8837    
    237000   300.00905     -1.3254962e+08  2003.8455      1426.8979    
    238000   300.02374     -1.325497e+08   2000.4004      1426.9121    
    239000   300.02806     -1.325495e+08   1992.3077      1426.9264    
    240000   300.05935     -1.3254961e+08  1985.8165      1426.9406    
    241000   300.02778     -1.325498e+08   1983.2932      1426.9549    
    242000   299.97294     -1.3254957e+08  1985.6339      1426.9691    
    243000   300.02756     -1.3254965e+08  1984.9868      1426.9834    
    244000   300.02085     -1.3254968e+08  1978.494       1426.9976    
    245000   299.96097     -1.3254961e+08  1982.0059      1427.0118    
    246000   299.97364     -1.3254983e+08  1976.5948      1427.0261    
    247000   300.0082      -1.3254976e+08  1980.5235      1427.0403    
    248000   299.93812     -1.3254954e+08  1972.1605      1427.0546    
    249000   300.00703     -1.3254976e+08  1979.2251      1427.0688    
    250000   299.96246     -1.325495e+08   1976.9904      1427.083     
    251000   299.93995     -1.3254941e+08  1978.3066      1427.0973    
    252000   299.97489     -1.3254926e+08  1958.1167      1427.1115    
    253000   300.03745     -1.3254972e+08  1958.9814      1427.1258    
    254000   300.01127     -1.3254938e+08  1950.9993      1427.14      
    255000   299.99124     -1.3254929e+08  1954.9957      1427.1543    
    256000   299.9915      -1.3254939e+08  1948.8746      1427.1685    
    257000   300.02083     -1.3254911e+08  1954.9998      1427.1827    
    258000   300.01966     -1.3254916e+08  1948.0652      1427.197     
    259000   300.06437     -1.3254911e+08  1938.449       1427.2112    
    260000   300.04343     -1.3254924e+08  1933.6014      1427.2255    
    261000   299.96257     -1.3254933e+08  1933.2984      1427.2397    
    262000   300.04671     -1.3254953e+08  1940.736       1427.254     
    263000   300.05935     -1.3254956e+08  1933.8341      1427.2682    
    264000   300.04328     -1.3254942e+08  1932.9506      1427.2824    
    265000   299.99606     -1.3254947e+08  1925.7497      1427.2967    
    266000   299.99373     -1.325496e+08   1924.9718      1427.3109    
    267000   299.97205     -1.3254956e+08  1920.9577      1427.3252    
    268000   299.95818     -1.3254955e+08  1922.6504      1427.3394    
    269000   299.99968     -1.3254944e+08  1916.358       1427.3537    
    270000   300.05205     -1.3254948e+08  1912.482       1427.3679    
    271000   300.02679     -1.325493e+08   1906.0561      1427.3821    
    272000   300.01489     -1.3254917e+08  1904.3509      1427.3964    
    273000   300.05067     -1.3254931e+08  1896.2022      1427.4106    
    274000   300.03609     -1.3254924e+08  1903.276       1427.4249    
    275000   300.01051     -1.3254917e+08  1904.0383      1427.4391    
    276000   300.07302     -1.3254927e+08  1904.2631      1427.4533    
    277000   300.03278     -1.3254948e+08  1888.5805      1427.4676    
    278000   300.02381     -1.3254948e+08  1885.5767      1427.4818    
    279000   299.95877     -1.3254937e+08  1883.9187      1427.4961    
    280000   299.97598     -1.3254958e+08  1889.4368      1427.5103    
    281000   300.00727     -1.3254968e+08  1885.9372      1427.5246    
    282000   299.91243     -1.3254935e+08  1880.1866      1427.5388    
    283000   299.97852     -1.3254942e+08  1869.1549      1427.553     
    284000   300.03065     -1.3254943e+08  1869.1034      1427.5673    
    285000   300.05009     -1.3254944e+08  1867.3634      1427.5815    
    286000   299.99651     -1.325494e+08   1866.3948      1427.5958    
    287000   299.94324     -1.3254943e+08  1860.3066      1427.61      
    288000   299.94996     -1.3254933e+08  1867.1209      1427.6243    
    289000   299.92467     -1.3254938e+08  1861.7613      1427.6385    
    290000   299.98287     -1.3254952e+08  1851.6005      1427.6527    
    291000   299.98686     -1.3254954e+08  1848.3045      1427.667     
    292000   299.97025     -1.3254925e+08  1850.1419      1427.6812    
    293000   300.00789     -1.3254913e+08  1843.4081      1427.6955    
    294000   299.95123     -1.3254914e+08  1842.7526      1427.7097    
    295000   299.98455     -1.3254931e+08  1836.0691      1427.724     
    296000   299.93564     -1.3254931e+08  1837.1733      1427.7382    
    297000   300.01828     -1.3254933e+08  1835.6018      1427.7524    
    298000   299.97478     -1.3254929e+08  1829.1771      1427.7667    
    299000   300.02121     -1.3254913e+08  1823.3925      1427.7809    
    300000   300.0451      -1.3254911e+08  1827.407       1427.7952    
    301000   299.94603     -1.3254885e+08  1831.1882      1427.8094    
    302000   299.97677     -1.3254917e+08  1811.2792      1427.8237    
    303000   299.97664     -1.3254916e+08  1812.8546      1427.8379    
    304000   299.97852     -1.3254934e+08  1806.9128      1427.8521    
    305000   300.00218     -1.3254944e+08  1820.6329      1427.8664    
    306000   300.00806     -1.3254918e+08  1815.353       1427.8806    
    307000   300.04442     -1.3254911e+08  1820.4         1427.8949    
    308000   300.05283     -1.3254905e+08  1808.3977      1427.9091    
    309000   299.99972     -1.3254866e+08  1805.7014      1427.9233    
    310000   300.01737     -1.3254897e+08  1790.1169      1427.9376    
    311000   299.97816     -1.3254856e+08  1796.6152      1427.9518    
    312000   300.03273     -1.3254873e+08  1792.2249      1427.9661    
    313000   300.04489     -1.3254864e+08  1786.9707      1427.9803    
    314000   300.05339     -1.3254885e+08  1790.8717      1427.9946    
    315000   300.08582     -1.3254876e+08  1783.9929      1428.0088    
    316000   300.05493     -1.3254867e+08  1782.7954      1428.023     
    317000   299.99773     -1.3254893e+08  1771.4843      1428.0373    
    318000   299.93244     -1.3254895e+08  1778.0115      1428.0515    
    319000   299.95264     -1.3254884e+08  1781.8798      1428.0658    
    320000   299.9306      -1.3254902e+08  1778.8644      1428.08      
    321000   299.99409     -1.3254921e+08  1771.9522      1428.0943    
    322000   299.96565     -1.3254909e+08  1766.9665      1428.1085    
    323000   299.92654     -1.3254896e+08  1759.3961      1428.1227    
    324000   299.9913      -1.3254881e+08  1757.952       1428.137     
    325000   300.00172     -1.3254881e+08  1757.7156      1428.1512    
    326000   299.99549     -1.3254874e+08  1757.8265      1428.1655    
    327000   299.95607     -1.3254893e+08  1751.6645      1428.1797    
    328000   299.98013     -1.3254898e+08  1749.7818      1428.194     
    329000   299.97599     -1.325487e+08   1750.393       1428.2082    
    330000   300.00923     -1.3254888e+08  1745.0861      1428.2224    
    331000   299.95693     -1.3254845e+08  1740.6814      1428.2367    
    332000   300.00331     -1.3254871e+08  1737.0398      1428.2509    
    333000   299.98945     -1.3254858e+08  1738.758       1428.2652    
    334000   300.07199     -1.3254871e+08  1730.9015      1428.2794    
    335000   300.06121     -1.3254886e+08  1733.4449      1428.2936    
    336000   300.04194     -1.3254861e+08  1719.7696      1428.3079    
    337000   300.03051     -1.3254845e+08  1719.1474      1428.3221    
    338000   299.96761     -1.325483e+08   1716.8787      1428.3364    
    339000   300.01752     -1.3254847e+08  1723.2717      1428.3506    
    340000   299.99396     -1.3254852e+08  1719.7938      1428.3649    
    341000   299.99916     -1.3254853e+08  1702.1522      1428.3791    
    342000   300.01262     -1.3254838e+08  1703.3259      1428.3933    
    343000   299.99583     -1.3254866e+08  1702.4381      1428.4076    
    344000   300.01759     -1.3254862e+08  1704.5793      1428.4218    
    345000   299.9736      -1.3254853e+08  1705.0065      1428.4361    
    346000   300.03256     -1.3254856e+08  1699.9191      1428.4503    
    347000   300.02827     -1.3254843e+08  1700.2852      1428.4646    
    348000   300.07664     -1.3254848e+08  1700.2358      1428.4788    
    349000   300.05337     -1.3254863e+08  1687.9303      1428.493     
    350000   300.01462     -1.3254855e+08  1688.9617      1428.5073    
    351000   299.99852     -1.3254851e+08  1695.9332      1428.5215    
    352000   299.97198     -1.3254857e+08  1697.2047      1428.5358    
    353000   299.97436     -1.3254854e+08  1689.0895      1428.55      
    354000   299.93888     -1.3254846e+08  1683.8438      1428.5643    
    355000   299.99471     -1.3254866e+08  1677.205       1428.5785    
    356000   300.0321      -1.3254824e+08  1669.7763      1428.5927    
    357000   300.0547      -1.3254834e+08  1665.64        1428.607     
    358000   300.09612     -1.3254855e+08  1661.6604      1428.6212    
    359000   300.0318      -1.325484e+08   1665.542       1428.6355    
    360000   300.00985     -1.3254849e+08  1661.9036      1428.6497    
    361000   299.94531     -1.3254877e+08  1663.6098      1428.6639    
    362000   299.95001     -1.325487e+08   1654.3351      1428.6782    
    363000   299.96147     -1.3254853e+08  1647.0569      1428.6924    
    364000   300.0398      -1.3254848e+08  1650.4806      1428.7067    
    365000   300.00702     -1.325484e+08   1647.1258      1428.7209    
    366000   299.98416     -1.3254839e+08  1655.7593      1428.7352    
    367000   299.97559     -1.3254819e+08  1649.6905      1428.7494    
    368000   300.02419     -1.3254858e+08  1637.7722      1428.7636    
    369000   299.97667     -1.3254831e+08  1628.1404      1428.7779    
    370000   299.95595     -1.3254838e+08  1629.9637      1428.7921    
    371000   299.95883     -1.3254842e+08  1625.0454      1428.8064    
    372000   299.9718      -1.3254832e+08  1627.5623      1428.8206    
    373000   299.94582     -1.3254842e+08  1630.803       1428.8349    
    374000   299.89199     -1.3254854e+08  1629.5816      1428.8491    
    375000   299.87576     -1.3254823e+08  1623.6785      1428.8633    
    376000   299.96613     -1.325483e+08   1612.0486      1428.8776    
    377000   299.95691     -1.3254817e+08  1611.2232      1428.8918    
    378000   300.04815     -1.3254858e+08  1608.8522      1428.9061    
    379000   299.9931      -1.325481e+08   1613.7898      1428.9203    
    380000   300.05726     -1.3254859e+08  1607.1952      1428.9346    
    381000   299.99468     -1.3254808e+08  1608.6449      1428.9488    
    382000   300.01317     -1.325479e+08   1600.829       1428.963     
    383000   300.09677     -1.3254829e+08  1595.693       1428.9773    
    384000   299.99351     -1.3254827e+08  1587.8774      1428.9915    
    385000   300.04254     -1.3254818e+08  1597.3236      1429.0058    
    386000   299.99195     -1.3254818e+08  1590.7465      1429.02      
    387000   299.98284     -1.3254807e+08  1585.2292      1429.0343    
    388000   300.00041     -1.3254809e+08  1582.4559      1429.0485    
    389000   300.00198     -1.3254798e+08  1584.6931      1429.0627    
    390000   300.0208      -1.3254801e+08  1574.407       1429.077     
    391000   299.97073     -1.3254772e+08  1577.885       1429.0912    
    392000   300.04087     -1.3254809e+08  1564.5765      1429.1055    
    393000   300.08672     -1.3254795e+08  1568.9148      1429.1197    
    394000   300.03154     -1.3254778e+08  1571.8437      1429.1339    
    395000   300.03792     -1.3254785e+08  1573.2406      1429.1482    
    396000   300.05286     -1.3254786e+08  1572.2284      1429.1624    
    397000   300.01148     -1.3254767e+08  1560.0685      1429.1767    
    398000   300.04604     -1.3254776e+08  1563.0745      1429.1909    
    399000   300.04767     -1.325479e+08   1563.8525      1429.2052    
    400000   299.96771     -1.3254768e+08  1560.2294      1429.2194    
    401000   300.02095     -1.3254774e+08  1546.0545      1429.2336    
    402000   299.97869     -1.3254754e+08  1545.7286      1429.2479    
    403000   300.01798     -1.3254813e+08  1534.1407      1429.2621    
    404000   299.9887      -1.3254753e+08  1550.099       1429.2764    
    405000   300.02281     -1.3254809e+08  1550.9113      1429.2906    
    406000   299.98847     -1.3254802e+08  1549.1096      1429.3049    
    407000   299.99771     -1.3254808e+08  1533.11        1429.3191    
    408000   300.0238      -1.3254812e+08  1518.7         1429.3333    
    409000   299.93447     -1.325479e+08   1512.1819      1429.3476    
    410000   299.9809      -1.325476e+08   1522.8018      1429.3618    
    411000   299.97898     -1.3254789e+08  1515.2777      1429.3761    
    412000   299.98217     -1.3254776e+08  1515.9549      1429.3903    
    413000   299.95802     -1.3254773e+08  1506.5443      1429.4046    
    414000   299.95677     -1.3254809e+08  1507.1459      1429.4188    
    415000   299.99393     -1.3254791e+08  1510.9887      1429.433     
    416000   299.9467      -1.3254788e+08  1507.1902      1429.4473    
    417000   299.96936     -1.3254757e+08  1498.0058      1429.4615    
    418000   300.02607     -1.3254775e+08  1496.7588      1429.4758    
    419000   299.95192     -1.3254742e+08  1495.4855      1429.49      
    420000   300.03162     -1.325476e+08   1502.9095      1429.5042    
    421000   300.01461     -1.3254735e+08  1496.5076      1429.5185    
    422000   300.04425     -1.3254766e+08  1494.4808      1429.5327    
    423000   299.93035     -1.3254747e+08  1486.3807      1429.547     
    424000   300.02162     -1.3254771e+08  1479.2599      1429.5612    
    425000   300.03754     -1.325477e+08   1484.9161      1429.5755    
    426000   300.06426     -1.3254718e+08  1489.3016      1429.5897    
    427000   300.06921     -1.3254719e+08  1478.7144      1429.6039    
    428000   300.09882     -1.3254718e+08  1469.5053      1429.6182    
    429000   300.02967     -1.3254737e+08  1460.5249      1429.6324    
    430000   299.96066     -1.3254726e+08  1464.818       1429.6467    
    431000   299.94847     -1.3254728e+08  1465.6437      1429.6609    
    432000   299.97274     -1.3254721e+08  1468.1826      1429.6752    
    433000   300.01012     -1.3254703e+08  1465.1237      1429.6894    
    434000   299.98906     -1.3254701e+08  1464.1383      1429.7036    
    435000   299.95783     -1.3254743e+08  1457.483       1429.7179    
    436000   299.95259     -1.3254745e+08  1451.6621      1429.7321    
    437000   299.94452     -1.3254733e+08  1453.2048      1429.7464    
    438000   299.95258     -1.3254726e+08  1451.9485      1429.7606    
    439000   300.03495     -1.3254767e+08  1450.2195      1429.7749    
    440000   300.03691     -1.3254731e+08  1442.5956      1429.7891    
    441000   300.04342     -1.325475e+08   1443.7552      1429.8033    
    442000   299.97705     -1.3254692e+08  1434.3541      1429.8176    
    443000   299.96903     -1.3254715e+08  1426.0395      1429.8318    
    444000   300.00504     -1.3254738e+08  1423.5333      1429.8461    
    445000   299.97364     -1.3254728e+08  1429.8247      1429.8603    
    446000   299.97049     -1.3254719e+08  1424.9154      1429.8745    
    447000   300.00061     -1.3254718e+08  1419.4612      1429.8888    
    448000   299.98484     -1.3254708e+08  1414.3922      1429.903     
    449000   299.90439     -1.3254704e+08  1417.1197      1429.9173    
    450000   299.98998     -1.3254726e+08  1421.3232      1429.9315    
    451000   300.01296     -1.3254728e+08  1415.3752      1429.9458    
    452000   300.00036     -1.3254734e+08  1410.1699      1429.96      
    453000   299.97246     -1.3254702e+08  1398.7123      1429.9742    
    454000   299.98784     -1.3254698e+08  1399.8121      1429.9885    
    455000   300.00699     -1.3254728e+08  1403.5084      1430.0027    
    456000   299.99965     -1.3254684e+08  1410.3193      1430.017     
    457000   299.96318     -1.325468e+08   1404.7402      1430.0312    
    458000   300.02643     -1.3254702e+08  1386.4981      1430.0455    
    459000   299.99677     -1.3254673e+08  1378.291       1430.0597    
    460000   300.02973     -1.3254685e+08  1377.644       1430.0739    
    461000   300.03159     -1.32547e+08    1373.1406      1430.0882    
    462000   299.99595     -1.3254696e+08  1376.3402      1430.1024    
    463000   299.97109     -1.3254669e+08  1374.7412      1430.1167    
    464000   299.97284     -1.3254644e+08  1380.5293      1430.1309    
    465000   300.03591     -1.3254704e+08  1377.1424      1430.1452    
    466000   299.95667     -1.3254695e+08  1371.5592      1430.1594    
    467000   299.97255     -1.3254701e+08  1372.6758      1430.1736    
    468000   300.02003     -1.3254702e+08  1366.6525      1430.1879    
    469000   299.99228     -1.3254694e+08  1364.7579      1430.2021    
    470000   299.98477     -1.3254662e+08  1355.7465      1430.2164    
    471000   300.01229     -1.3254667e+08  1361.406       1430.2306    
    472000   300.04333     -1.3254652e+08  1352.7678      1430.2448    
    473000   299.99445     -1.3254677e+08  1351.7883      1430.2591    
    474000   299.96061     -1.3254653e+08  1347.6981      1430.2733    
    475000   300.02585     -1.3254673e+08  1346.9762      1430.2876    
    476000   299.97606     -1.3254684e+08  1342.3288      1430.3018    
    477000   299.94993     -1.3254657e+08  1350.6741      1430.3161    
    478000   299.94881     -1.3254668e+08  1352.8916      1430.3303    
    479000   299.98957     -1.3254656e+08  1339.5624      1430.3445    
    480000   300.02673     -1.3254661e+08  1328.9979      1430.3588    
    481000   299.99148     -1.3254655e+08  1323.8779      1430.373     
    482000   300.04318     -1.3254662e+08  1319.1653      1430.3873    
    483000   300.02561     -1.3254665e+08  1328.0931      1430.4015    
    484000   300.00463     -1.3254657e+08  1318.2151      1430.4158    
    485000   300.00402     -1.3254687e+08  1327.2973      1430.43      
    486000   300.03258     -1.3254671e+08  1315.8163      1430.4442    
    487000   299.96565     -1.3254655e+08  1308.0176      1430.4585    
    488000   300.05532     -1.3254635e+08  1303.8084      1430.4727    
    489000   300.0306      -1.3254638e+08  1304.5863      1430.487     
    490000   300.0269      -1.3254656e+08  1302.8369      1430.5012    
    491000   299.95822     -1.3254627e+08  1304.7691      1430.5155    
    492000   300.04421     -1.3254674e+08  1302.441       1430.5297    
    493000   300.01905     -1.3254654e+08  1296.9254      1430.5439    
    494000   300.00122     -1.3254636e+08  1298.3471      1430.5582    
    495000   299.96904     -1.3254661e+08  1287.1716      1430.5724    
    496000   299.9585      -1.3254625e+08  1292.2325      1430.5867    
    497000   299.96387     -1.3254635e+08  1286.4737      1430.6009    
    498000   300.02276     -1.3254632e+08  1280.7337      1430.6152    
    499000   300.01422     -1.3254631e+08  1278.6327      1430.6294    
    500000   300.02497     -1.3254632e+08  1277.5084      1430.6436    
    501000   300.03402     -1.3254651e+08  1275.0939      1430.6579    
    502000   299.98704     -1.3254603e+08  1276.7248      1430.6721    
    503000   299.96375     -1.3254612e+08  1275.5348      1430.6864    
    504000   299.95495     -1.3254629e+08  1262.9957      1430.7006    
    505000   299.96329     -1.3254664e+08  1265.1258      1430.7148    
    506000   299.93583     -1.3254624e+08  1255.6403      1430.7291    
    507000   300.06083     -1.325468e+08   1258.374       1430.7433    
    508000   299.9519      -1.3254648e+08  1255.3779      1430.7576    
    509000   299.98229     -1.3254666e+08  1248.6983      1430.7718    
    510000   299.98289     -1.3254643e+08  1244.3425      1430.7861    
    511000   299.94587     -1.3254629e+08  1246.613       1430.8003    
    512000   299.97136     -1.3254638e+08  1245.0037      1430.8145    
    513000   299.95189     -1.3254606e+08  1244.9314      1430.8288    
    514000   299.9098      -1.3254571e+08  1247.2231      1430.843     
    515000   299.94294     -1.3254601e+08  1238.9724      1430.8573    
    516000   299.95366     -1.3254615e+08  1231.1937      1430.8715    
    517000   299.87163     -1.3254572e+08  1233.0613      1430.8858    
    518000   300.01428     -1.3254619e+08  1226.8549      1430.9       
    519000   299.97677     -1.3254594e+08  1234.7522      1430.9142    
    520000   300.0004      -1.3254601e+08  1221.8344      1430.9285    
    521000   300.02593     -1.3254596e+08  1230.3467      1430.9427    
    522000   299.95793     -1.325457e+08   1224.8549      1430.957     
    523000   299.9865      -1.3254591e+08  1214.8637      1430.9712    
    524000   299.97045     -1.3254561e+08  1204.7258      1430.9855    
    525000   300.05502     -1.3254549e+08  1205.0023      1430.9997    
    526000   300.01653     -1.3254574e+08  1202.7354      1431.0139    
    527000   299.99591     -1.3254573e+08  1197.2297      1431.0282    
    528000   299.95252     -1.3254564e+08  1199.0104      1431.0424    
    529000   299.94675     -1.3254584e+08  1200.3721      1431.0567    
    530000   300.01379     -1.3254602e+08  1201.5234      1431.0709    
    531000   299.98855     -1.3254574e+08  1198.0878      1431.0851    
    532000   300.03783     -1.3254565e+08  1189.0552      1431.0994    
    533000   300.00787     -1.325459e+08   1179.695       1431.1136    
    534000   299.99419     -1.325455e+08   1191.0581      1431.1279    
    535000   300.03112     -1.3254566e+08  1181.9146      1431.1421    
    536000   300.05633     -1.3254569e+08  1182.3165      1431.1564    
    537000   299.98033     -1.3254528e+08  1169.9391      1431.1706    
    538000   299.97906     -1.3254538e+08  1163.018       1431.1848    
    539000   300.03959     -1.325455e+08   1161.172       1431.1991    
    540000   299.97513     -1.3254551e+08  1164.9249      1431.2133    
    541000   299.96008     -1.3254544e+08  1166.5661      1431.2276    
    542000   300.01383     -1.325459e+08   1158.2717      1431.2418    
    543000   299.97036     -1.3254539e+08  1171.0588      1431.2561    
    544000   299.96006     -1.3254527e+08  1160.7803      1431.2703    
    545000   300.04865     -1.3254531e+08  1150.5056      1431.2845    
    546000   299.99196     -1.3254545e+08  1141.6873      1431.2988    
    547000   299.97661     -1.3254529e+08  1150.223       1431.313     
    548000   300.00997     -1.3254542e+08  1148.4369      1431.3273    
    549000   300.01534     -1.3254539e+08  1148.7784      1431.3415    
    550000   300.003       -1.325455e+08   1139.377       1431.3558    
    551000   299.96615     -1.3254498e+08  1133.9926      1431.37      
    552000   299.95295     -1.3254489e+08  1135.8119      1431.3842    
    553000   300.00291     -1.3254531e+08  1132.1566      1431.3985    
    554000   300.02612     -1.3254531e+08  1128.5618      1431.4127    
    555000   300.00869     -1.3254513e+08  1132.8217      1431.427     
    556000   300.03872     -1.3254517e+08  1128.4575      1431.4412    
    557000   299.98615     -1.3254501e+08  1125.2328      1431.4554    
    558000   299.96889     -1.3254505e+08  1120.5103      1431.4697    
    559000   300.00569     -1.3254483e+08  1119.0108      1431.4839    
    560000   300.02893     -1.3254509e+08  1122.704       1431.4982    
    561000   300.01051     -1.3254517e+08  1118.8847      1431.5124    
    562000   299.97987     -1.3254492e+08  1118.1384      1431.5267    
    563000   299.96019     -1.3254481e+08  1110.3777      1431.5409    
    564000   299.99555     -1.3254505e+08  1101.2413      1431.5551    
    565000   299.98562     -1.325452e+08   1103.3043      1431.5694    
    566000   299.93831     -1.3254533e+08  1098.326       1431.5836    
    567000   300.01498     -1.3254539e+08  1092.3258      1431.5979    
    568000   299.99917     -1.3254511e+08  1092.3509      1431.6121    
    569000   300.05427     -1.3254518e+08  1092.1259      1431.6264    
    570000   299.98091     -1.3254468e+08  1101.2591      1431.6406    
    571000   299.98923     -1.3254504e+08  1096.9536      1431.6548    
    572000   299.94303     -1.3254496e+08  1088.5054      1431.6691    
    573000   299.99885     -1.325452e+08   1084.3372      1431.6833    
    574000   299.98859     -1.325451e+08   1081.4611      1431.6976    
    575000   299.93594     -1.325449e+08   1069.3025      1431.7118    
    576000   299.99346     -1.3254495e+08  1068.9915      1431.7261    
    577000   299.99735     -1.3254524e+08  1070.3515      1431.7403    
    578000   299.99871     -1.3254493e+08  1069.8409      1431.7545    
    579000   299.95988     -1.3254496e+08  1067.03        1431.7688    
    580000   299.98359     -1.3254478e+08  1065.1997      1431.783     
    581000   300.03941     -1.3254507e+08  1063.7443      1431.7973    
    582000   299.99925     -1.3254477e+08  1064.398       1431.8115    
    583000   300.08763     -1.3254528e+08  1062.8789      1431.8257    
    584000   300.07807     -1.3254475e+08  1056.3233      1431.84      
    585000   300.02764     -1.3254438e+08  1048.1706      1431.8542    
    586000   300.03823     -1.325448e+08   1037.7288      1431.8685    
    587000   300.02963     -1.3254469e+08  1027.5185      1431.8827    
    588000   300.06018     -1.325446e+08   1034.098       1431.897     
    589000   300.06279     -1.325446e+08   1033.2681      1431.9112    
    590000   299.97715     -1.3254437e+08  1036.9341      1431.9254    
    591000   299.96046     -1.3254423e+08  1026.2036      1431.9397    
    592000   300.03633     -1.3254449e+08  1024.9454      1431.9539    
    593000   300.07364     -1.325444e+08   1021.2719      1431.9682    
    594000   300.015       -1.3254419e+08  1022.3481      1431.9824    
    595000   300.01082     -1.3254419e+08  1015.22        1431.9967    
    596000   300.05162     -1.3254449e+08  1017.4092      1432.0109    
    597000   299.97429     -1.3254411e+08  1024.9462      1432.0251    
    598000   300.03725     -1.3254408e+08  1026.7251      1432.0394    
    599000   300.08548     -1.3254411e+08  1021.1063      1432.0536    
    600000   300.05981     -1.3254431e+08  1009.2551      1432.0679    
    601000   300.02629     -1.325443e+08   1004.6772      1432.0821    
    602000   299.97911     -1.3254423e+08  1002.6381      1432.0964    
    603000   299.98071     -1.3254435e+08  996.52819      1432.1106    
    604000   300.04653     -1.3254429e+08  990.95854      1432.1248    
    605000   300.00707     -1.3254418e+08  988.96956      1432.1391    
    606000   300.04481     -1.3254423e+08  987.68194      1432.1533    
    607000   299.98133     -1.3254423e+08  989.97702      1432.1676    
    608000   300.0039      -1.3254411e+08  992.60441      1432.1818    
    609000   299.9738      -1.3254413e+08  988.06434      1432.1961    
    610000   300.00367     -1.325441e+08   980.75327      1432.2103    
    611000   300.0183      -1.3254425e+08  969.2898       1432.2245    
    612000   299.98999     -1.3254409e+08  970.68746      1432.2388    
    613000   299.9847      -1.3254408e+08  969.03855      1432.253     
    614000   300.03646     -1.3254404e+08  971.06607      1432.2673    
    615000   300.04766     -1.3254388e+08  968.50054      1432.2815    
    616000   299.93506     -1.3254368e+08  967.83256      1432.2957    
    617000   299.97179     -1.3254417e+08  963.76658      1432.31      
    618000   299.96913     -1.325437e+08   960.89279      1432.3242    
    619000   300.03017     -1.3254388e+08  953.27755      1432.3385    
    620000   299.97972     -1.3254371e+08  951.56858      1432.3527    
    621000   299.9488      -1.3254381e+08  948.36285      1432.367     
    622000   299.99077     -1.3254373e+08  948.86025      1432.3812    
    623000   299.99235     -1.3254395e+08  946.2513       1432.3954    
    624000   300.0039      -1.3254382e+08  946.94172      1432.4097    
    625000   299.96226     -1.3254377e+08  943.40212      1432.4239    
    626000   300.02237     -1.3254397e+08  935.29949      1432.4382    
    627000   300.02779     -1.3254391e+08  931.73283      1432.4524    
    628000   300.07791     -1.3254401e+08  938.35172      1432.4667    
    629000   299.9719      -1.3254373e+08  924.10488      1432.4809    
    630000   299.98862     -1.3254357e+08  932.62758      1432.4951    
    631000   299.94914     -1.3254359e+08  919.75542      1432.5094    
    632000   299.99633     -1.3254413e+08  923.64051      1432.5236    
    633000   299.98922     -1.3254379e+08  928.51299      1432.5379    
    634000   299.92908     -1.3254373e+08  924.30927      1432.5521    
    635000   300.00875     -1.3254435e+08  912.1857       1432.5664    
    636000   299.90469     -1.3254371e+08  907.41731      1432.5806    
    637000   299.93723     -1.3254362e+08  903.4903       1432.5948    
    638000   299.9942      -1.3254364e+08  907.50784      1432.6091    
    639000   299.99469     -1.3254371e+08  902.23508      1432.6233    
    640000   299.96534     -1.3254375e+08  891.26512      1432.6376    
    641000   299.96851     -1.3254378e+08  888.15982      1432.6518    
    642000   299.97563     -1.325435e+08   887.95296      1432.666     
    643000   300.01984     -1.3254348e+08  897.07659      1432.6803    
    644000   300.03697     -1.3254378e+08  891.0061       1432.6945    
    645000   299.99356     -1.3254354e+08  892.54629      1432.7088    
    646000   299.97447     -1.3254344e+08  886.52776      1432.723     
    647000   299.93694     -1.3254338e+08  878.46486      1432.7373    
    648000   300.00107     -1.3254346e+08  880.88966      1432.7515    
    649000   299.92928     -1.3254305e+08  884.30184      1432.7657    
    650000   299.98155     -1.3254343e+08  891.27128      1432.78      
    651000   299.98838     -1.3254364e+08  876.24166      1432.7942    
    652000   299.97201     -1.3254342e+08  869.13215      1432.8085    
    653000   299.98859     -1.3254328e+08  853.64987      1432.8227    
    654000   299.99193     -1.3254307e+08  861.33955      1432.837     
    655000   300.00526     -1.3254283e+08  865.34951      1432.8512    
    656000   300.01319     -1.3254297e+08  860.1965       1432.8654    
    657000   299.99535     -1.3254312e+08  854.95459      1432.8797    
    658000   299.98548     -1.3254269e+08  846.03172      1432.8939    
    659000   300.03236     -1.325427e+08   848.30386      1432.9082    
    660000   300.02579     -1.3254282e+08  833.74131      1432.9224    
    661000   299.97969     -1.3254267e+08  836.70818      1432.9367    
    662000   300.08111     -1.3254299e+08  836.3741       1432.9509    
    663000   300.04383     -1.3254273e+08  845.26068      1432.9651    
    664000   300.02046     -1.3254273e+08  833.9128       1432.9794    
    665000   300.05638     -1.3254285e+08  835.3294       1432.9936    
    666000   299.99175     -1.325429e+08   825.43979      1433.0079    
    667000   300.00398     -1.3254297e+08  827.26193      1433.0221    
    668000   299.96971     -1.3254277e+08  826.33321      1433.0363    
    669000   300.03878     -1.3254316e+08  834.80043      1433.0506    
    670000   299.9984      -1.3254302e+08  823.29481      1433.0648    
    671000   300           -1.3254294e+08  821.42242      1433.0791    
    672000   299.99675     -1.3254295e+08  816.66325      1433.0933    
    673000   300.00232     -1.325431e+08   813.37224      1433.1076    
    674000   299.94041     -1.3254306e+08  803.30816      1433.1218    
    675000   299.96476     -1.325429e+08   811.14635      1433.136     
    676000   300.02954     -1.3254289e+08  815.21681      1433.1503    
    677000   299.97282     -1.3254292e+08  807.24583      1433.1645    
    678000   299.99585     -1.3254275e+08  799.56627      1433.1788    
    679000   299.93585     -1.3254287e+08  786.24189      1433.193     
    680000   299.91365     -1.3254286e+08  785.92638      1433.2073    
    681000   299.97809     -1.3254282e+08  790.52002      1433.2215    
    682000   299.9818      -1.3254296e+08  792.22711      1433.2357    
    683000   299.93187     -1.325428e+08   791.70975      1433.25      
    684000   299.99536     -1.3254301e+08  781.58221      1433.2642    
    685000   299.95169     -1.3254269e+08  773.61959      1433.2785    
    686000   299.95159     -1.3254271e+08  779.138        1433.2927    
    687000   299.94708     -1.3254265e+08  774.0165       1433.307     
    688000   299.99299     -1.325429e+08   772.33364      1433.3212    
    689000   299.92924     -1.325425e+08   768.54351      1433.3354    
    690000   299.92965     -1.3254258e+08  767.7922       1433.3497    
    691000   300.03702     -1.3254262e+08  757.50408      1433.3639    
    692000   299.97481     -1.3254256e+08  763.04961      1433.3782    
    693000   299.98629     -1.325425e+08   760.93598      1433.3924    
    694000   299.91828     -1.3254246e+08  754.54482      1433.4067    
    695000   299.914       -1.3254254e+08  756.22102      1433.4209    
    696000   299.93231     -1.3254243e+08  751.08125      1433.4351    
    697000   299.96687     -1.3254254e+08  751.09593      1433.4494    
    698000   299.95647     -1.325421e+08   749.94724      1433.4636    
    699000   299.99561     -1.3254223e+08  749.95369      1433.4779    
    700000   300.06612     -1.3254227e+08  746.78739      1433.4921    
    701000   299.99785     -1.3254188e+08  744.51099      1433.5063    
    702000   300.08395     -1.3254218e+08  735.75869      1433.5206    
    703000   299.99396     -1.3254187e+08  727.59463      1433.5348    
    704000   299.95478     -1.3254184e+08  722.1035       1433.5491    
    705000   299.95769     -1.3254212e+08  723.65699      1433.5633    
    706000   299.97737     -1.32542e+08    723.28381      1433.5776    
    707000   300.03        -1.3254209e+08  719.25193      1433.5918    
    708000   300.03233     -1.3254189e+08  711.27422      1433.606     
    709000   300.03766     -1.3254201e+08  719.21157      1433.6203    
    710000   300.00806     -1.3254209e+08  719.28491      1433.6345    
    711000   300.01851     -1.3254202e+08  714.42793      1433.6488    
    712000   299.9584      -1.3254177e+08  713.02616      1433.663     
    713000   299.98806     -1.3254174e+08  706.19589      1433.6773    
    714000   300.0674      -1.325419e+08   709.18576      1433.6915    
    715000   300.05441     -1.3254151e+08  715.2739       1433.7057    
    716000   300.06003     -1.325419e+08   704.96478      1433.72      
    717000   300.01489     -1.3254176e+08  688.92602      1433.7342    
    718000   299.90747     -1.3254136e+08  682.363        1433.7485    
    719000   299.95444     -1.3254186e+08  689.87066      1433.7627    
    720000   300.02185     -1.3254197e+08  684.98165      1433.777     
    721000   299.97765     -1.3254176e+08  679.89783      1433.7912    
    722000   300.02255     -1.3254158e+08  673.67578      1433.8054    
    723000   300.06094     -1.3254142e+08  676.34975      1433.8197    
    724000   300.00373     -1.325414e+08   672.63183      1433.8339    
    725000   300.05795     -1.3254165e+08  671.70634      1433.8482    
    726000   300.02188     -1.3254162e+08  673.51642      1433.8624    
    727000   299.99841     -1.3254154e+08  669.84841      1433.8766    
    728000   300.00437     -1.3254134e+08  674.1565       1433.8909    
    729000   300.05199     -1.325413e+08   665.19888      1433.9051    
    730000   300.072       -1.3254137e+08  659.9762       1433.9194    
    731000   300.01218     -1.3254117e+08  667.14461      1433.9336    
    732000   300.02925     -1.3254097e+08  667.2265       1433.9479    
    733000   300.0626      -1.325413e+08   657.20865      1433.9621    
    734000   300.05734     -1.3254141e+08  648.9452       1433.9763    
    735000   299.98498     -1.3254152e+08  641.60858      1433.9906    
    736000   300.00905     -1.3254162e+08  647.12192      1434.0048    
    737000   299.99335     -1.3254111e+08  647.38939      1434.0191    
    738000   299.92252     -1.3254128e+08  646.81514      1434.0333    
    739000   299.93118     -1.3254148e+08  632.15271      1434.0476    
    740000   299.95161     -1.3254123e+08  629.73357      1434.0618    
    741000   299.98084     -1.3254137e+08  619.62661      1434.076     
    742000   300.02524     -1.3254134e+08  624.63638      1434.0903    
    743000   300.01037     -1.3254148e+08  629.5007       1434.1045    
    744000   299.97677     -1.325412e+08   634.23282      1434.1188    
    745000   299.98135     -1.325413e+08   629.29801      1434.133     
    746000   299.95451     -1.3254101e+08  609.94123      1434.1473    
    747000   300.02327     -1.3254147e+08  606.71601      1434.1615    
    748000   299.95785     -1.3254096e+08  601.57086      1434.1757    
    749000   299.98732     -1.3254088e+08  610.50859      1434.19      
    750000   299.97658     -1.3254077e+08  618.67076      1434.2042    
    751000   300.00524     -1.3254129e+08  611.09378      1434.2185    
    752000   299.99322     -1.3254122e+08  607.79048      1434.2327    
    753000   299.99567     -1.3254105e+08  596.24827      1434.2469    
    754000   299.97636     -1.3254104e+08  599.89162      1434.2612    
    755000   299.96976     -1.3254099e+08  601.49752      1434.2754    
    756000   300.02929     -1.3254068e+08  602.77181      1434.2897    
    757000   300.05548     -1.3254074e+08  591.3946       1434.3039    
    758000   300.03331     -1.3254033e+08  582.6607       1434.3182    
    759000   300.03138     -1.3254058e+08  572.62264      1434.3324    
    760000   300.03836     -1.3254021e+08  575.43166      1434.3466    
    761000   300.01164     -1.325402e+08   574.8853       1434.3609    
    762000   300.11506     -1.325407e+08   570.63644      1434.3751    
    763000   300.01863     -1.3254046e+08  563.84685      1434.3894    
    764000   300.04522     -1.3254048e+08  573.17563      1434.4036    
    765000   300.03478     -1.3254042e+08  577.33539      1434.4179    
    766000   300.04517     -1.325403e+08   570.85431      1434.4321    
    767000   299.98399     -1.3254008e+08  562.53249      1434.4463    
    768000   300.02511     -1.3254021e+08  558.11884      1434.4606    
    769000   300.0561      -1.3254023e+08  546.69973      1434.4748    
    770000   299.99872     -1.3254039e+08  555.06091      1434.4891    
    771000   299.96996     -1.3254039e+08  546.80895      1434.5033    
    772000   300.00139     -1.3254041e+08  547.77248      1434.5176    
    773000   300.0505      -1.3254021e+08  550.74079      1434.5318    
    774000   300.03726     -1.3254042e+08  551.42996      1434.546     
    775000   300.00028     -1.3254039e+08  539.64191      1434.5603    
    776000   299.91181     -1.3253993e+08  541.02435      1434.5745    
    777000   299.97671     -1.3254035e+08  528.77742      1434.5888    
    778000   300.09343     -1.3254041e+08  537.04604      1434.603     
    779000   300.03783     -1.3254019e+08  533.79649      1434.6172    
    780000   300.06687     -1.3254018e+08  528.52255      1434.6315    
    781000   299.99571     -1.3253997e+08  524.68407      1434.6457    
    782000   299.97788     -1.3254005e+08  519.54872      1434.66      
    783000   299.96141     -1.3254002e+08  524.67141      1434.6742    
    784000   299.98085     -1.3254008e+08  522.71997      1434.6885    
    785000   299.99205     -1.3254004e+08  522.61003      1434.7027    
    786000   299.99784     -1.3253997e+08  509.48655      1434.7169    
    787000   300.03151     -1.3254002e+08  514.46447      1434.7312    
    788000   300.03328     -1.3253966e+08  505.53614      1434.7454    
    789000   300.05502     -1.3253986e+08  510.08547      1434.7597    
    790000   300.01714     -1.3253953e+08  509.86356      1434.7739    
    791000   299.98968     -1.3253952e+08  506.52051      1434.7882    
    792000   300.02988     -1.3253981e+08  490.98726      1434.8024    
    793000   300.00456     -1.3253985e+08  489.15133      1434.8166    
    794000   299.97375     -1.3253969e+08  495.58227      1434.8309    
    795000   300.09674     -1.3253963e+08  485.92816      1434.8451    
    796000   300.05412     -1.3253961e+08  485.76254      1434.8594    
    797000   300.00898     -1.3253951e+08  481.8305       1434.8736    
    798000   300.02025     -1.3253941e+08  479.69626      1434.8879    
    799000   299.95032     -1.3253945e+08  481.51827      1434.9021    
    800000   300.00241     -1.3253958e+08  485.33304      1434.9163    
    801000   299.99512     -1.3253929e+08  481.61881      1434.9306    
    802000   299.98835     -1.3253936e+08  474.32412      1434.9448    
    803000   300.0018      -1.3253941e+08  470.22364      1434.9591    
    804000   299.98335     -1.3253952e+08  466.47069      1434.9733    
    805000   300.00914     -1.3253957e+08  470.41144      1434.9876    
    806000   299.97326     -1.3253924e+08  465.1999       1435.0018    
    807000   299.97493     -1.3253934e+08  454.75096      1435.016     
    808000   299.93624     -1.3253917e+08  444.33609      1435.0303    
    809000   300.0272      -1.3253948e+08  439.45032      1435.0445    
    810000   300.0293      -1.3253951e+08  433.87918      1435.0588    
    811000   300.08677     -1.3253964e+08  437.06963      1435.073     
    812000   299.95634     -1.3253896e+08  438.54269      1435.0872    
    813000   300.02124     -1.3253931e+08  442.01435      1435.1015    
    814000   299.95509     -1.3253918e+08  439.69838      1435.1157    
    815000   300.02383     -1.3253971e+08  439.67801      1435.13      
    816000   299.9569      -1.3253942e+08  425.73765      1435.1442    
    817000   299.95795     -1.3253953e+08  431.92333      1435.1585    
    818000   299.97636     -1.3253958e+08  425.30817      1435.1727    
    819000   299.93256     -1.3253919e+08  427.01383      1435.1869    
    820000   299.98323     -1.3253923e+08  429.41891      1435.2012    
    821000   299.99206     -1.3253911e+08  417.39032      1435.2154    
    822000   299.99081     -1.325391e+08   414.85052      1435.2297    
    823000   299.91953     -1.325388e+08   406.51408      1435.2439    
    824000   300.00352     -1.3253914e+08  405.79505      1435.2582    
    825000   299.91831     -1.3253924e+08  411.36758      1435.2724    
    826000   299.96046     -1.3253901e+08  405.71941      1435.2866    
    827000   300.02365     -1.3253908e+08  405.53788      1435.3009    
    828000   300.00986     -1.3253894e+08  401.34452      1435.3151    
    829000   300.00552     -1.3253889e+08  396.76358      1435.3294    
    830000   299.95976     -1.3253873e+08  385.87053      1435.3436    
    831000   300.00195     -1.3253849e+08  388.87343      1435.3579    
    832000   300.0064      -1.3253841e+08  391.61054      1435.3721    
    833000   300.05681     -1.3253845e+08  395.20437      1435.3863    
    834000   300.05446     -1.3253833e+08  393.29323      1435.4006    
    835000   300.0614      -1.3253861e+08  386.99074      1435.4148    
    836000   300.0201      -1.3253816e+08  380.64985      1435.4291    
    837000   300.06589     -1.3253823e+08  367.90277      1435.4433    
    838000   300.04026     -1.3253813e+08  368.70798      1435.4575    
    839000   300.04136     -1.3253848e+08  362.41177      1435.4718    
    840000   300.01037     -1.3253824e+08  361.9058       1435.486     
    841000   300.0558      -1.325383e+08   362.10822      1435.5003    
    842000   299.97568     -1.3253806e+08  369.41885      1435.5145    
    843000   300.0486      -1.325385e+08   364.11598      1435.5288    
    844000   300.05746     -1.3253842e+08  362.11945      1435.543     
    845000   300.03142     -1.3253803e+08  358.2415       1435.5572    
    846000   299.97571     -1.3253806e+08  356.84705      1435.5715    
    847000   300.05701     -1.3253819e+08  353.07781      1435.5857    
    848000   300.0176      -1.3253828e+08  347.88446      1435.6       
    849000   299.95266     -1.3253808e+08  346.60614      1435.6142    
    850000   300.04413     -1.3253826e+08  344.34528      1435.6285    
    851000   300.00581     -1.3253816e+08  337.79023      1435.6427    
    852000   300.09441     -1.3253817e+08  339.2788       1435.6569    
    853000   300.03209     -1.3253798e+08  332.20525      1435.6712    
    854000   300.02673     -1.3253763e+08  337.84903      1435.6854    
    855000   300.01654     -1.3253783e+08  323.96312      1435.6997    
    856000   300.02375     -1.3253809e+08  322.67508      1435.7139    
    857000   299.99442     -1.3253805e+08  323.20392      1435.7282    
    858000   300.09356     -1.3253826e+08  330.09267      1435.7424    
    859000   300.06122     -1.3253794e+08  325.29027      1435.7566    
    860000   300.02536     -1.3253797e+08  317.4154       1435.7709    
    861000   299.99234     -1.3253798e+08  314.72212      1435.7851    
    862000   300.00246     -1.3253817e+08  313.46785      1435.7994    
    863000   300.00614     -1.3253783e+08  308.29672      1435.8136    
    864000   300.00502     -1.3253784e+08  301.23449      1435.8278    
    865000   299.97459     -1.325379e+08   305.47406      1435.8421    
    866000   299.99836     -1.3253778e+08  296.55987      1435.8563    
    867000   299.90278     -1.3253753e+08  296.53143      1435.8706    
    868000   300.00533     -1.3253805e+08  300.85708      1435.8848    
    869000   299.99029     -1.3253782e+08  294.52148      1435.8991    
    870000   299.97382     -1.3253753e+08  296.38044      1435.9133    
    871000   299.99377     -1.325377e+08   287.1688       1435.9275    
    872000   299.9812      -1.3253784e+08  288.0789       1435.9418    
    873000   299.97484     -1.325379e+08   284.11903      1435.956     
    874000   299.94985     -1.3253817e+08  283.45264      1435.9703    
    875000   299.96403     -1.3253792e+08  277.5314       1435.9845    
    876000   299.97086     -1.3253749e+08  279.2433       1435.9988    
    877000   299.96039     -1.3253759e+08  267.4107       1436.013     
    878000   299.99024     -1.325376e+08   267.98007      1436.0272    
    879000   300.00278     -1.3253758e+08  266.16236      1436.0415    
    880000   299.96657     -1.325375e+08   265.25298      1436.0557    
    881000   300.04683     -1.3253771e+08  261.38638      1436.07      
    882000   299.96199     -1.3253746e+08  257.47464      1436.0842    
    883000   299.92085     -1.3253732e+08  256.13655      1436.0985    
    884000   299.97154     -1.3253729e+08  252.04753      1436.1127    
    885000   299.96095     -1.3253736e+08  252.2142       1436.1269    
    886000   299.95686     -1.3253736e+08  247.18129      1436.1412    
    887000   299.99979     -1.3253718e+08  242.13722      1436.1554    
    888000   299.98597     -1.3253714e+08  235.87749      1436.1697    
    889000   299.94149     -1.3253689e+08  232.71987      1436.1839    
    890000   299.92077     -1.3253705e+08  238.38958      1436.1982    
    891000   299.93585     -1.3253691e+08  248.5008       1436.2124    
    892000   300.01262     -1.3253729e+08  241.49988      1436.2266    
    893000   299.95506     -1.3253709e+08  232.31019      1436.2409    
    894000   299.99531     -1.3253685e+08  220.35496      1436.2551    
    895000   300.00664     -1.325367e+08   223.77143      1436.2694    
    896000   299.97459     -1.3253677e+08  227.5879       1436.2836    
    897000   299.98743     -1.3253684e+08  227.81778      1436.2978    
    898000   299.90895     -1.3253659e+08  226.64765      1436.3121    
    899000   299.91651     -1.3253672e+08  227.141        1436.3263    
    900000   299.99544     -1.3253694e+08  214.81662      1436.3406    
    901000   299.99543     -1.3253653e+08  208.88075      1436.3548    
    902000   300.0219      -1.3253675e+08  201.67882      1436.3691    
    903000   299.99521     -1.3253661e+08  211.2417       1436.3833    
    904000   299.98225     -1.3253664e+08  201.06917      1436.3975    
    905000   300.02916     -1.3253654e+08  196.9195       1436.4118    
    906000   300.01852     -1.325365e+08   188.06322      1436.426     
    907000   300.00571     -1.3253641e+08  190.83649      1436.4403    
    908000   300.05535     -1.3253653e+08  188.84319      1436.4545    
    909000   300.0488      -1.3253618e+08  191.83918      1436.4688    
    910000   300.03052     -1.3253653e+08  194.29785      1436.483     
    911000   300.03686     -1.3253656e+08  182.00643      1436.4972    
    912000   300.01719     -1.3253662e+08  181.41876      1436.5115    
    913000   300.0143      -1.3253633e+08  172.67003      1436.5257    
    914000   299.92123     -1.3253617e+08  168.85744      1436.54      
    915000   300.04327     -1.3253626e+08  170.21774      1436.5542    
    916000   299.97154     -1.32536e+08    176.77673      1436.5685    
    917000   300.06575     -1.3253634e+08  178.20016      1436.5827    
    918000   300.0575      -1.3253595e+08  170.16557      1436.5969    
    919000   300.0388      -1.3253618e+08  165.30977      1436.6112    
    920000   300.02093     -1.3253622e+08  159.59645      1436.6254    
    921000   299.99625     -1.3253602e+08  161.5973       1436.6397    
    922000   300.00414     -1.3253589e+08  152.50258      1436.6539    
    923000   300.02725     -1.3253589e+08  159.434        1436.6681    
    924000   299.9822      -1.3253581e+08  160.77639      1436.6824    
    925000   299.96751     -1.3253597e+08  149.57843      1436.6966    
    926000   300.04172     -1.3253615e+08  145.95526      1436.7109    
    927000   299.96197     -1.3253586e+08  134.78648      1436.7251    
    928000   299.93795     -1.3253576e+08  142.22003      1436.7394    
    929000   300.01717     -1.325361e+08   144.85996      1436.7536    
    930000   300.03777     -1.3253601e+08  145.32549      1436.7678    
    931000   299.9699      -1.325358e+08   139.1404       1436.7821    
    932000   299.99459     -1.3253581e+08  126.57294      1436.7963    
    933000   300.00006     -1.3253586e+08  130.25137      1436.8106    
    934000   299.96818     -1.3253575e+08  130.14611      1436.8248    
    935000   300.01739     -1.325358e+08   125.55098      1436.8391    
    936000   299.99844     -1.3253524e+08  120.60914      1436.8533    
    937000   300.0409      -1.3253537e+08  113.71235      1436.8675    
    938000   300.08508     -1.3253501e+08  113.60284      1436.8818    
    939000   300.07693     -1.3253507e+08  110.93493      1436.896     
    940000   300.06239     -1.3253525e+08  110.16276      1436.9103    
    941000   299.96669     -1.3253517e+08  104.43625      1436.9245    
    942000   300.04908     -1.3253555e+08  94.774688      1436.9388    
    943000   299.9962      -1.3253534e+08  86.660145      1436.953     
    944000   300.03359     -1.3253545e+08  91.045781      1436.9672    
    945000   300.02106     -1.3253537e+08  112.76992      1436.9815    
    946000   300.03155     -1.3253548e+08  106.3531       1436.9957    
    947000   300.07799     -1.3253576e+08  97.231707      1437.01      
    948000   299.93724     -1.3253504e+08  80.615032      1437.0242    
    949000   300.0042      -1.3253568e+08  82.600964      1437.0384    
    950000   299.9812      -1.325355e+08   79.731896      1437.0527    
    951000   299.96949     -1.3253535e+08  85.896169      1437.0669    
    952000   299.98734     -1.3253544e+08  76.016409      1437.0812    
    953000   299.99221     -1.3253543e+08  69.760813      1437.0954    
    954000   299.99574     -1.3253539e+08  71.08238       1437.1097    
    955000   299.91525     -1.3253547e+08  67.283026      1437.1239    
    956000   299.88456     -1.3253545e+08  78.578433      1437.1381    
    957000   299.96496     -1.3253533e+08  73.393384      1437.1524    
    958000   299.97437     -1.3253553e+08  61.632717      1437.1666    
    959000   299.88971     -1.325349e+08   48.87876       1437.1809    
    960000   299.96543     -1.3253507e+08  52.864373      1437.1951    
    961000   299.92588     -1.3253481e+08  49.360085      1437.2094    
    962000   300.00167     -1.3253496e+08  57.550402      1437.2236    
    963000   300.0306      -1.3253482e+08  60.364096      1437.2378    
    964000   300.01726     -1.3253476e+08  56.522095      1437.2521    
    965000   300.03852     -1.3253477e+08  53.882185      1437.2663    
    966000   300.00808     -1.3253472e+08  47.93157       1437.2806    
    967000   299.99888     -1.3253484e+08  43.837382      1437.2948    
    968000   300.00135     -1.325346e+08   42.716226      1437.3091    
    969000   300.04112     -1.3253439e+08  51.192542      1437.3233    
    970000   300.04066     -1.3253434e+08  43.141272      1437.3375    
    971000   300.00734     -1.3253438e+08  37.649908      1437.3518    
    972000   300.08803     -1.3253444e+08  20.63863       1437.366     
    973000   300.00334     -1.3253442e+08  13.505332      1437.3803    
    974000   300.02333     -1.3253458e+08  2.9713752      1437.3945    
    975000   300.01442     -1.3253422e+08  17.99057       1437.4087    
    976000   300.02889     -1.3253444e+08  21.423898      1437.423     
    977000   300.0748      -1.3253455e+08  25.837263      1437.4372    
    978000   299.94346     -1.3253409e+08  14.543687      1437.4515    
    979000   299.9982      -1.3253422e+08  4.2015899      1437.4657    
    980000   300.03766     -1.3253451e+08 -9.7875107      1437.48      
    981000   299.98136     -1.325343e+08  -8.0575486      1437.4942    
    982000   299.96082     -1.3253426e+08  3.3352697      1437.5084    
    983000   299.97031     -1.3253432e+08  0.76408835     1437.5227    
    984000   300.00314     -1.3253442e+08  5.9419125      1437.5369    
    985000   299.99964     -1.3253437e+08 -6.0072141      1437.5512    
    986000   299.98758     -1.3253437e+08 -4.4199755      1437.5654    
    987000   299.9587      -1.3253379e+08 -12.905172      1437.5797    
    988000   299.95039     -1.3253401e+08 -18.308088      1437.5939    
    989000   299.95731     -1.3253395e+08 -14.982295      1437.6081    
    990000   299.96566     -1.3253385e+08 -14.523737      1437.6224    
    991000   299.98637     -1.3253389e+08 -20.671926      1437.6366    
    992000   299.98935     -1.325338e+08  -26.150485      1437.6509    
    993000   300.00984     -1.3253408e+08 -38.494784      1437.6651    
    994000   299.97543     -1.3253395e+08 -41.660033      1437.6794    
    995000   299.98517     -1.3253343e+08 -26.099017      1437.6936    
    996000   299.99511     -1.3253368e+08 -17.672614      1437.7078    
    997000   299.98344     -1.3253387e+08 -21.319199      1437.7221    
    998000   299.94788     -1.3253363e+08 -34.248789      1437.7363    
    999000   299.99962     -1.3253359e+08 -42.669407      1437.7506    
   1000000   299.99289     -1.3253379e+08 -59.457076      1437.7648    
   1001000   300.00567     -1.3253341e+08 -55.731266      1437.7791    
   1002000   300.08679     -1.3253335e+08 -51.367422      1437.7933    
   1003000   300.0141      -1.3253313e+08 -44.956698      1437.8075    
   1004000   300.11892     -1.3253357e+08 -54.951563      1437.8218    
   1005000   300.06499     -1.3253334e+08 -61.834633      1437.836     
   1006000   300.03391     -1.3253331e+08 -68.630133      1437.8503    
   1007000   300.05026     -1.3253326e+08 -59.753361      1437.8645    
   1008000   300.02979     -1.3253321e+08 -66.672452      1437.8787    
   1009000   300.03447     -1.3253326e+08 -61.215913      1437.893     
   1010000   299.97164     -1.3253274e+08 -70.738096      1437.9072    
   1011000   300.03632     -1.3253299e+08 -76.517971      1437.9215    
   1012000   300.00032     -1.3253309e+08 -81.157484      1437.9357    
   1013000   300.06265     -1.325331e+08  -78.711597      1437.95      
   1014000   300.07419     -1.3253305e+08 -82.95709       1437.9642    
   1015000   300.02147     -1.3253274e+08 -78.681499      1437.9784    
   1016000   300.07299     -1.3253321e+08 -82.792075      1437.9927    
   1017000   299.97221     -1.3253267e+08 -80.854164      1438.0069    
   1018000   299.97138     -1.3253293e+08 -90.484766      1438.0212    
   1019000   300.02308     -1.3253323e+08 -91.385213      1438.0354    
   1020000   300.00252     -1.3253305e+08 -95.465695      1438.0497    
   1021000   299.97968     -1.3253315e+08 -91.461994      1438.0639    
   1022000   299.97089     -1.3253287e+08 -95.618122      1438.0781    
   1023000   300.03463     -1.3253276e+08 -103.32522      1438.0924    
   1024000   300.01447     -1.3253254e+08 -106.17127      1438.1066    
   1025000   299.99309     -1.3253264e+08 -116.89958      1438.1209    
   1026000   299.98342     -1.3253284e+08 -113.32482      1438.1351    
   1027000   299.90642     -1.3253281e+08 -119.13648      1438.1494    
   1028000   300.01875     -1.3253278e+08 -114.19664      1438.1636    
   1029000   300.03476     -1.3253249e+08 -115.2631       1438.1778    
   1030000   300.00742     -1.3253249e+08 -119.90847      1438.1921    
   1031000   299.96753     -1.3253247e+08 -123.61576      1438.2063    
   1032000   300.00998     -1.3253264e+08 -127.48686      1438.2206    
   1033000   300.01489     -1.3253257e+08 -127.68411      1438.2348    
   1034000   299.97668     -1.3253187e+08 -125.4596       1438.249     
   1035000   299.98508     -1.3253212e+08 -135.05634      1438.2633    
   1036000   299.98764     -1.3253222e+08 -146.87123      1438.2775    
[...]
   4034000   299.97769     -1.3230624e+08 -6312.1127      1480.9761    
   4035000   299.98224     -1.3230643e+08 -6324.2024      1480.9903    
   4036000   299.98096     -1.3230619e+08 -6325.5776      1481.0046    
   4037000   300.05985     -1.3230637e+08 -6325.6671      1481.0188    
   4038000   299.94093     -1.3230608e+08 -6324.4445      1481.0331    
   4039000   300.00527     -1.3230597e+08 -6324.3295      1481.0473    
   4040000   300.01483     -1.3230613e+08 -6320.0198      1481.0615    
   4041000   299.96796     -1.3230597e+08 -6314.9227      1481.0758    
   4042000   300.0238      -1.3230593e+08 -6318.8358      1481.09      
   4043000   300.02165     -1.3230568e+08 -6321.5601      1481.1043    
   4044000   299.98625     -1.3230568e+08 -6331.087       1481.1185    
   4045000   300.02296     -1.3230532e+08 -6337.8078      1481.1328    
   4046000   299.97781     -1.3230518e+08 -6337.7848      1481.147     
   4047000   299.95257     -1.3230491e+08 -6326.3724      1481.1612    
   4048000   299.94853     -1.3230524e+08 -6325.9692      1481.1755    
   4049000   299.91316     -1.3230527e+08 -6330.2787      1481.1897    
   4050000   299.9457      -1.3230487e+08 -6337.4272      1481.204     
   4051000   299.97509     -1.3230457e+08 -6352.1251      1481.2182    
   4052000   299.96757     -1.3230414e+08 -6348.1816      1481.2324    
   4053000   300.01625     -1.3230455e+08 -6345.471       1481.2467    
   4054000   299.96769     -1.3230416e+08 -6346.5222      1481.2609    
   4055000   299.99341     -1.3230385e+08 -6348.2218      1481.2752    
   4056000   300.06911     -1.3230412e+08 -6344.947       1481.2894    
   4057000   299.9805      -1.323038e+08  -6341.6059      1481.3037    
   4058000   300.03058     -1.3230408e+08 -6342.5217      1481.3179    
   4059000   299.94138     -1.3230361e+08 -6353.6809      1481.3321    
   4060000   299.97661     -1.3230372e+08 -6362.3083      1481.3464    
   4061000   299.96681     -1.3230358e+08 -6353.0856      1481.3606    
   4062000   299.96177     -1.3230341e+08 -6356.4985      1481.3749    
   4063000   299.98926     -1.3230327e+08 -6358.44        1481.3891    
   4064000   299.95533     -1.3230308e+08 -6370.3358      1481.4034    
   4065000   299.94179     -1.3230278e+08 -6360.6751      1481.4176    
   4066000   300.07241     -1.3230316e+08 -6366.8701      1481.4318    
   4067000   300.0309      -1.3230301e+08 -6358.7085      1481.4461    
   4068000   300.01962     -1.3230284e+08 -6361.5358      1481.4603    
   4069000   300.04697     -1.3230259e+08 -6359.2914      1481.4746    
   4070000   300.04324     -1.3230233e+08 -6364.2632      1481.4888    
   4071000   299.9633      -1.3230198e+08 -6376.7885      1481.5031    
   4072000   300.00648     -1.3230233e+08 -6378.7982      1481.5173    
   4073000   299.98639     -1.3230228e+08 -6377.3692      1481.5315    
   4074000   300.01099     -1.3230201e+08 -6364.9786      1481.5458    
   4075000   300.02331     -1.3230187e+08 -6365.0689      1481.56      
   4076000   299.9922      -1.3230191e+08 -6374.8842      1481.5743    
   4077000   299.99586     -1.3230167e+08 -6386.0951      1481.5885    
   4078000   299.93601     -1.3230159e+08 -6389.6149      1481.6027    
   4079000   299.96087     -1.3230165e+08 -6386.4331      1481.617     
   4080000   299.92945     -1.3230128e+08 -6382.7058      1481.6312    
   4081000   299.99337     -1.323012e+08  -6386.0241      1481.6455    
   4082000   300.0301      -1.3230096e+08 -6388.7433      1481.6597    
   4083000   300.01858     -1.3230075e+08 -6395.0467      1481.674     
   4084000   299.99627     -1.3230071e+08 -6396.0199      1481.6882    
   4085000   299.99256     -1.3230082e+08 -6395.3104      1481.7024    
   4086000   300.03166     -1.3230077e+08 -6387.6621      1481.7167    
   4087000   300.00395     -1.3230054e+08 -6387.0975      1481.7309    
   4088000   299.96997     -1.3230049e+08 -6397.0836      1481.7452    
   4089000   299.92169     -1.3230016e+08 -6402.2039      1481.7594    
   4090000   300.00736     -1.3230043e+08 -6402.1084      1481.7737    
   4091000   299.94971     -1.3230002e+08 -6385.884       1481.7879    
   4092000   300.02898     -1.323e+08     -6392.8388      1481.8021    
   4093000   299.92206     -1.3229984e+08 -6402.311       1481.8164    
   4094000   299.99095     -1.3230001e+08 -6397.8011      1481.8306    
   4095000   300.03524     -1.3229978e+08 -6402.7001      1481.8449    
   4096000   300.00875     -1.3229953e+08 -6418.3018      1481.8591    
   4097000   300.00803     -1.3229973e+08 -6422.1016      1481.8734    
   4098000   299.97652     -1.3229963e+08 -6413.862       1481.8876    
   4099000   299.97215     -1.322996e+08  -6405.1993      1481.9018    
   4100000   299.97291     -1.3229943e+08 -6403.6652      1481.9161    
   4101000   299.99296     -1.3229909e+08 -6412.1789      1481.9303    
   4102000   299.95588     -1.322988e+08  -6422.4942      1481.9446    
   4103000   299.97352     -1.3229864e+08 -6432.4162      1481.9588    
   4104000   300.00105     -1.3229865e+08 -6427.6727      1481.973     
   4105000   299.95707     -1.3229852e+08 -6419.7203      1481.9873    
   4106000   299.94772     -1.3229852e+08 -6418.8495      1482.0015    
   4107000   300.02334     -1.3229849e+08 -6424.71        1482.0158    
   4108000   299.95693     -1.3229785e+08 -6422.5122      1482.03      
   4109000   300.05197     -1.3229818e+08 -6433.3655      1482.0443    
   4110000   300.02123     -1.3229805e+08 -6432.3845      1482.0585    
   4111000   300.01659     -1.3229773e+08 -6425.6647      1482.0727    
   4112000   300.06241     -1.3229791e+08 -6422.4646      1482.087     
   4113000   299.98952     -1.3229764e+08 -6431.5337      1482.1012    
   4114000   299.98624     -1.3229756e+08 -6438.7961      1482.1155    
   4115000   300.04273     -1.3229775e+08 -6439.566       1482.1297    
   4116000   299.97166     -1.3229724e+08 -6425.6457      1482.144     
   4117000   299.9496      -1.3229714e+08 -6433.2518      1482.1582    
   4118000   300.01464     -1.3229742e+08 -6438.8727      1482.1724    
   4119000   299.93836     -1.3229674e+08 -6449.381       1482.1867    
   4120000   299.93379     -1.3229691e+08 -6454.805       1482.2009    
   4121000   299.99196     -1.3229671e+08 -6451.5484      1482.2152    
   4122000   300.01696     -1.3229665e+08 -6441.3516      1482.2294    
   4123000   300.00202     -1.3229647e+08 -6448.6258      1482.2437    
   4124000   300.04701     -1.3229655e+08 -6453.951       1482.2579    
   4125000   300.03065     -1.3229647e+08 -6457.6983      1482.2721    
   4126000   299.95384     -1.3229638e+08 -6456.248       1482.2864    
   4127000   299.9823      -1.3229609e+08 -6464.5262      1482.3006    
   4128000   299.96722     -1.322963e+08  -6461.2643      1482.3149    
   4129000   299.9898      -1.3229607e+08 -6461.5593      1482.3291    
   4130000   299.99238     -1.3229602e+08 -6448.1108      1482.3434    
   4131000   299.99018     -1.322959e+08  -6451.4419      1482.3576    
   4132000   300.02401     -1.3229564e+08 -6459.7532      1482.3718    
   4133000   300.03793     -1.3229571e+08 -6465.55        1482.3861    
   4134000   300.0184      -1.3229542e+08 -6464.9274      1482.4003    
   4135000   299.98473     -1.3229535e+08 -6462.8142      1482.4146    
   4136000   299.97228     -1.3229538e+08 -6457.2545      1482.4288    
   4137000   300.00927     -1.3229506e+08 -6461.6641      1482.443     
   4138000   299.98389     -1.3229486e+08 -6463.0704      1482.4573    
   4139000   299.97288     -1.3229477e+08 -6473.9584      1482.4715    
   4140000   299.97875     -1.3229495e+08 -6484.9387      1482.4858    
   4141000   300.00221     -1.3229455e+08 -6483.729       1482.5       
   4142000   299.93577     -1.3229437e+08 -6476.3876      1482.5143    
   4143000   299.98301     -1.3229441e+08 -6481.516       1482.5285    
   4144000   299.95782     -1.3229406e+08 -6486.1914      1482.5427    
   4145000   299.99503     -1.3229428e+08 -6491.5433      1482.557     
   4146000   299.96429     -1.3229371e+08 -6490.9289      1482.5712    
   4147000   300.01946     -1.3229395e+08 -6485.5195      1482.5855    
   4148000   300.04003     -1.3229382e+08 -6488.4757      1482.5997    
   4149000   299.978       -1.3229356e+08 -6486.2446      1482.614     
   4150000   299.96722     -1.3229355e+08 -6494.1657      1482.6282    
   4151000   299.9778      -1.3229371e+08 -6490.0684      1482.6424    
   4152000   300.00589     -1.3229325e+08 -6490.4452      1482.6567    
   4153000   300.02232     -1.3229319e+08 -6493.062       1482.6709    
   4154000   300.05048     -1.3229292e+08 -6493.8443      1482.6852    
   4155000   300.04911     -1.3229263e+08 -6502.0803      1482.6994    
   4156000   300.00999     -1.3229264e+08 -6495.0397      1482.7137    
   4157000   299.98297     -1.3229271e+08 -6505.1613      1482.7279    
   4158000   300.01732     -1.3229271e+08 -6503.674       1482.7421    
   4159000   299.93927     -1.3229256e+08 -6505.8257      1482.7564    
   4160000   299.93826     -1.3229251e+08 -6509.0163      1482.7706    
   4161000   300.018       -1.322929e+08  -6503.2813      1482.7849    
   4162000   299.97596     -1.3229238e+08 -6506.7309      1482.7991    
   4163000   299.97655     -1.3229204e+08 -6509.9226      1482.8133    
   4164000   300.00024     -1.3229151e+08 -6513.6601      1482.8276    
   4165000   300.02727     -1.3229166e+08 -6515.2871      1482.8418    
   4166000   300.0043      -1.3229182e+08 -6514.8083      1482.8561    
   4167000   299.93611     -1.322918e+08  -6511.065       1482.8703    
   4168000   299.95305     -1.3229176e+08 -6514.3335      1482.8846    
   4169000   299.92035     -1.3229141e+08 -6519.0465      1482.8988    
   4170000   299.99678     -1.32291e+08   -6518.0638      1482.913     
   4171000   300.06006     -1.3229093e+08 -6518.9151      1482.9273    
   4172000   300.12798     -1.3229138e+08 -6515.0768      1482.9415    
   4173000   300.01131     -1.3229081e+08 -6511.9747      1482.9558    
   4174000   300.04627     -1.3229047e+08 -6513.7268      1482.97      
   4175000   300.05896     -1.322907e+08  -6519.7583      1482.9843    
   4176000   299.98898     -1.3229056e+08 -6527.7322      1482.9985    
   4177000   300.06687     -1.3229038e+08 -6532.3367      1483.0127    
   4178000   300.06147     -1.3229018e+08 -6532.3769      1483.027     
   4179000   300.01716     -1.3229007e+08 -6531.3566      1483.0412    
   4180000   300.00906     -1.3228993e+08 -6527.2929      1483.0555    
   4181000   300.01214     -1.3228986e+08 -6529.0787      1483.0697    
   4182000   300.06812     -1.3228974e+08 -6528.8829      1483.084     
   4183000   300.03832     -1.3228956e+08 -6534.0706      1483.0982    
   4184000   299.96969     -1.3228931e+08 -6537.5318      1483.1124    
   4185000   300.02782     -1.3228946e+08 -6543.68        1483.1267    
   4186000   299.94839     -1.3228932e+08 -6538.6798      1483.1409    
   4187000   299.91664     -1.3228909e+08 -6538.9525      1483.1552    
   4188000   299.99323     -1.3228933e+08 -6545.9336      1483.1694    
   4189000   299.94864     -1.3228898e+08 -6553.2153      1483.1836    
   4190000   299.95521     -1.3228894e+08 -6553.4591      1483.1979    
   4191000   299.97505     -1.3228896e+08 -6549.9715      1483.2121    
   4192000   299.9198      -1.3228887e+08 -6545.126       1483.2264    
   4193000   299.99921     -1.3228917e+08 -6556.5546      1483.2406    
   4194000   299.93516     -1.3228878e+08 -6553.8746      1483.2549    
   4195000   299.97327     -1.3228881e+08 -6554.1959      1483.2691    
   4196000   299.97574     -1.3228826e+08 -6548.9672      1483.2833    
   4197000   300.0254      -1.3228834e+08 -6567.8416      1483.2976    
   4198000   300.01723     -1.3228805e+08 -6564.7511      1483.3118    
   4199000   299.98898     -1.3228773e+08 -6565.3831      1483.3261    
   4200000   300.01755     -1.3228786e+08 -6561.3493      1483.3403    
   4201000   300.01828     -1.3228777e+08 -6561.5676      1483.3546    
   4202000   300.01        -1.3228746e+08 -6565.4872      1483.3688    
   4203000   300.01652     -1.3228741e+08 -6563.1346      1483.383     
   4204000   300.03012     -1.3228741e+08 -6573.3327      1483.3973    
   4205000   300.02004     -1.322871e+08  -6570.9937      1483.4115    
   4206000   300.02718     -1.3228681e+08 -6573.2374      1483.4258    
   4207000   300.00924     -1.3228661e+08 -6574.7744      1483.44      
   4208000   300.08514     -1.3228706e+08 -6573.1289      1483.4543    
   4209000   300.05206     -1.3228668e+08 -6568.3411      1483.4685    
   4210000   300.00054     -1.3228663e+08 -6582.3079      1483.4827    
   4211000   300.03189     -1.3228659e+08 -6586.5368      1483.497     
   4212000   300.03443     -1.3228639e+08 -6586.3334      1483.5112    
   4213000   300.03572     -1.3228647e+08 -6583.7878      1483.5255    
   4214000   300.00799     -1.3228634e+08 -6583.9972      1483.5397    
   4215000   300.01764     -1.322863e+08  -6584.7741      1483.5539    
   4216000   299.99315     -1.3228636e+08 -6590.2146      1483.5682    
   4217000   299.98639     -1.3228595e+08 -6588.8717      1483.5824    
   4218000   300.00629     -1.3228591e+08 -6588.4836      1483.5967    
   4219000   299.9722      -1.322854e+08  -6581.1773      1483.6109    
   4220000   299.98802     -1.3228546e+08 -6584.6335      1483.6252    
   4221000   299.97227     -1.3228533e+08 -6586.2931      1483.6394    
   4222000   300.01548     -1.322856e+08  -6594.8774      1483.6536    
   4223000   300.04874     -1.3228552e+08 -6594.8434      1483.6679    
   4224000   300.00636     -1.3228516e+08 -6591.9829      1483.6821    
   4225000   300.06925     -1.3228537e+08 -6592.0218      1483.6964    
   4226000   299.98326     -1.3228504e+08 -6595.86        1483.7106    
   4227000   299.96817     -1.3228493e+08 -6595.5368      1483.7249    
   4228000   299.98216     -1.3228476e+08 -6609.3771      1483.7391    
   4229000   300.00014     -1.3228469e+08 -6613.6853      1483.7533    
   4230000   300.02013     -1.3228435e+08 -6612.4333      1483.7676    
   4231000   300.01397     -1.322844e+08  -6607.4987      1483.7818    
   4232000   299.99937     -1.3228387e+08 -6609.0291      1483.7961    
   4233000   300.08298     -1.3228395e+08 -6610.8245      1483.8103    
   4234000   300.09391     -1.3228384e+08 -6618.3661      1483.8246    
   4235000   300.02752     -1.3228364e+08 -6615.4636      1483.8388    
   4236000   300.01387     -1.3228378e+08 -6622.229       1483.853     
   4237000   300.00746     -1.3228369e+08 -6619.6813      1483.8673    
   4238000   299.98729     -1.3228345e+08 -6623.5564      1483.8815    
   4239000   299.98033     -1.3228337e+08 -6613.1636      1483.8958    
   4240000   299.96124     -1.3228342e+08 -6622.2249      1483.91      
   4241000   300.00307     -1.3228329e+08 -6612.6067      1483.9243    
   4242000   299.96276     -1.3228314e+08 -6629.0631      1483.9385    
   4243000   299.96494     -1.3228305e+08 -6625.9076      1483.9527    
   4244000   299.983       -1.3228311e+08 -6632.9256      1483.967     
   4245000   299.99402     -1.3228297e+08 -6628.456       1483.9812    
   4246000   299.92051     -1.3228259e+08 -6633.2962      1483.9955    
   4247000   299.98207     -1.3228247e+08 -6630.4654      1484.0097    
   4248000   299.99735     -1.3228239e+08 -6637.923       1484.0239    
   4249000   299.99055     -1.3228239e+08 -6637.659       1484.0382    
   4250000   300.00377     -1.3228205e+08 -6644.7092      1484.0524    
   4251000   299.99893     -1.3228221e+08 -6642.1316      1484.0667    
   4252000   300.02474     -1.3228192e+08 -6644.8578      1484.0809    
   4253000   300.0345      -1.3228196e+08 -6638.5454      1484.0952    
   4254000   299.96855     -1.3228139e+08 -6647.1374      1484.1094    
   4255000   300.05973     -1.3228132e+08 -6631.9744      1484.1236    
   4256000   299.99483     -1.3228129e+08 -6648.4511      1484.1379    
   4257000   300.05874     -1.3228132e+08 -6647.5319      1484.1521    
   4258000   300.03071     -1.3228094e+08 -6650.6551      1484.1664    
   4259000   299.99981     -1.3228085e+08 -6640.5289      1484.1806    
   4260000   299.99444     -1.3228117e+08 -6649.145       1484.1949    
   4261000   300.02198     -1.3228097e+08 -6649.8244      1484.2091    
   4262000   299.99328     -1.3228063e+08 -6649.8346      1484.2233    
   4263000   299.982       -1.3228071e+08 -6657.9577      1484.2376    
   4264000   300.09979     -1.3228051e+08 -6655.856       1484.2518    
   4265000   299.98066     -1.3228019e+08 -6652.8624      1484.2661    
   4266000   300.00851     -1.3228008e+08 -6653.1318      1484.2803    
   4267000   300.00625     -1.3228001e+08 -6668.6497      1484.2946    
   4268000   300.00448     -1.3228e+08    -6669.1996      1484.3088    
   4269000   299.99614     -1.322797e+08  -6659.1596      1484.323     
   4270000   300.01381     -1.3227995e+08 -6656.9871      1484.3373    
   4271000   299.99038     -1.3227964e+08 -6658.7068      1484.3515    
   4272000   299.9976      -1.3227936e+08 -6663.0321      1484.3658    
   4273000   300.07688     -1.3227958e+08 -6677.6576      1484.38      
   4274000   300.04485     -1.3227891e+08 -6669.9717      1484.3942    
   4275000   300.03906     -1.3227919e+08 -6671.8687      1484.4085    
   4276000   300.02155     -1.3227912e+08 -6675.6351      1484.4227    
   4277000   299.9763      -1.3227908e+08 -6671.6226      1484.437     
   4278000   299.9525      -1.3227871e+08 -6671.333       1484.4512    
   4279000   299.96239     -1.3227856e+08 -6673.9716      1484.4655    
   4280000   300.01993     -1.3227867e+08 -6683.8425      1484.4797    
   4281000   300.02262     -1.3227852e+08 -6684.7067      1484.4939    
   4282000   299.9675      -1.322782e+08  -6678.6966      1484.5082    
   4283000   300.03394     -1.3227839e+08 -6677.9527      1484.5224    
   4284000   299.99086     -1.3227817e+08 -6679.9817      1484.5367    
   4285000   299.9699      -1.3227817e+08 -6690.623       1484.5509    
   4286000   299.9446      -1.322782e+08  -6690.1098      1484.5652    
   4287000   299.99598     -1.3227821e+08 -6694.1422      1484.5794    
   4288000   299.98089     -1.3227798e+08 -6689.2716      1484.5936    
   4289000   299.98546     -1.3227759e+08 -6688.772       1484.6079    
   4290000   299.97121     -1.322775e+08  -6688.3023      1484.6221    
   4291000   300.02415     -1.3227764e+08 -6691.3791      1484.6364    
   4292000   299.94449     -1.3227696e+08 -6690.744       1484.6506    
   4293000   299.99521     -1.3227727e+08 -6701.7619      1484.6649    
   4294000   300.01222     -1.3227713e+08 -6702.6184      1484.6791    
   4295000   300.02361     -1.3227689e+08 -6705.9491      1484.6933    
   4296000   300.03125     -1.3227682e+08 -6699.5429      1484.7076    
   4297000   300.00779     -1.3227659e+08 -6705.8251      1484.7218    
   4298000   300.02675     -1.3227646e+08 -6708.334       1484.7361    
   4299000   299.98012     -1.3227619e+08 -6707.0835      1484.7503    
   4300000   300.04072     -1.3227652e+08 -6708.3591      1484.7645    
   4301000   300.00654     -1.3227651e+08 -6705.0136      1484.7788    
   4302000   299.98026     -1.3227627e+08 -6705.6502      1484.793     
   4303000   300.02093     -1.3227626e+08 -6715.9793      1484.8073    
   4304000   299.97288     -1.3227597e+08 -6724.2955      1484.8215    
   4305000   300.01811     -1.3227579e+08 -6718.0241      1484.8358    
   4306000   300.00035     -1.3227581e+08 -6721.6305      1484.85      
   4307000   300.05937     -1.3227555e+08 -6712.0604      1484.8642    
   4308000   300.05639     -1.3227524e+08 -6724.7263      1484.8785    
   4309000   300.01262     -1.3227509e+08 -6723.2977      1484.8927    
   4310000   300.03984     -1.322753e+08  -6734.9491      1484.907     
