LAMMPS (23 Jun 2022)
KOKKOS mode is enabled (src/KOKKOS/kokkos.cpp:105)
  will use up to 4 GPU(s) per node
  using 1 OpenMP thread(s) per MPI task
package kokkos
package kokkos neigh half newton off
#LAMMPS input file

# ------------------------ INITIALIZATION ----------------------------
processors    * * *
units         metal
dimension    3
boundary    p    p    p
atom_style   charge
atom_modify map array sort 0 1

#--------------------------- LAMMPS Data File--------------------------

read_data    relaxed_step.lmp #reset_relaxed.lmp # model_4.lmp # pre_strained.lmp # High_sep_Cu_45.lmp # Cu_111_FR_45_MIN.lmp
Reading data file ...
  orthogonal box = (-314.8477 -522.43942 600) to (1109.3869 540.14923 1100)
  4 by 4 by 2 MPI processor grid
  reading atoms ...
  37948320 atoms
  reading velocities ...
  37948320 velocities
  read_data CPU = 135.080 seconds
#read_dump   dump.min_1862000.lammpstrj 1862000 x y z vx vy vz
variable  temp equal 400
variable  temp_init equal ${temp}*2
variable  temp_init equal 400*2
variable  sratex equal 5e-6 # in 1/ps (0.5 strain after 10ns)
# ------------------------ FORCE FIELDS ------------------------------
pair_style    eam/alloy
pair_coeff    * * Cu01.eam.alloy.txt Cu # Cu

#------------------------- SETTINGS ---------------------------------

#change_box        all x scale 1.015 remap units box

compute csym all centro/atom fcc
#compute peratom all pe/atom

# compute stresses
#compute       sf all stress/atom NULL

#-------------For Lorentz Forces from QEq----------------------------
# Apply forces
#variable qfx atomfile input_fx_new.txt
#variable qfy atomfile input_fy_new.txt
#variable qfz atomfile input_fz_new.txt
#variable qe atom  -(x*v_qfx+y*v_qfy+z*v_qfz)

#fix force_q1 all addforce v_qfx v_qfy v_qfz energy v_qe
#fix_modify force_q1 energy yes

#delete_atoms group exclude
#fix freez hold setforce 0 0 0
#fix_modify force_q2 energy yes
thermo 1000
thermo_style custom step temp pe press lx
thermo_modify flush yes
#min_style fire
#minimize 0.0 1e-4 100000 100000
#--------Thermal Relax---------------------------
velocity all create ${temp_init} 300 rot no dist gaussian
velocity all create 800 300 rot no dist gaussian
timestep  0.002
fix 1 all langevin ${temp} ${temp} 5 300
fix 1 all langevin 400 ${temp} 5 300
fix 1 all langevin 400 400 5 300
fix ensemble all nve
run 50000
Neighbor list info ...
  update every 1 steps, delay 10 steps, check yes
  max neighbors/atom: 2000, page size: 100000
  master list distance cutoff = 7.506786
  ghost atom cutoff = 7.506786
  binsize = 7.506786, bins = 190 142 67
  2 neighbor lists, perpetual/occasional/extra = 1 1 0
  (1) pair eam/alloy/kk, perpetual
      attributes: half, newton off, kokkos_device
      pair build: half/bin/kk/device
      stencil: full/bin/3d
      bin: kk/device
  (2) compute centro/atom, occasional
      attributes: full, newton off
      pair build: full/bin/atomonly
      stencil: full/bin/3d
      bin: standard
Per MPI rank memory allocation (min/avg/max) = 419 | 460.3 | 502.1 Mbytes
   Step          Temp          PotEng         Press            Lx      
         0   800           -1.3404495e+08  5196.3763      1424.2346    
      1000   400.33548     -1.32087e+08    8679.3428      1424.2346    
      2000   396.90384     -1.3206636e+08  3423.7169      1424.2346    
      3000   392.83474     -1.3202529e+08 -923.86791      1424.2346    
      4000   397.20988     -1.320255e+08   735.56058      1424.2346    
      5000   400.46416     -1.3203845e+08  3158.4441      1424.2346    
      6000   401.55785     -1.3204826e+08  5377.4375      1424.2346    
      7000   400.71824     -1.3204954e+08  5129.7003      1424.2346    
      8000   399.72305     -1.3204566e+08  3833.4028      1424.2346    
      9000   398.68315     -1.3203689e+08  2589.1211      1424.2346    
     10000   398.87779     -1.3203235e+08  2300.5551      1424.2346    
     11000   399.89246     -1.3203512e+08  2968.7723      1424.2346    
     12000   400.40003     -1.3203856e+08  3686.0334      1424.2346    
     13000   400.54456     -1.3204161e+08  4110.9903      1424.2346    
     14000   400.24049     -1.3204137e+08  3853.4434      1424.2346    
     15000   399.8954      -1.3203966e+08  3503.3545      1424.2346    
     16000   399.72896     -1.3203764e+08  3204.9629      1424.2346    
     17000   399.81504     -1.3203778e+08  3326.3895      1424.2346    
     18000   400.03673     -1.3203861e+08  3491.5587      1424.2346    
     19000   400.24964     -1.3203995e+08  3667.8238      1424.2346    
     20000   400.09582     -1.3203975e+08  3620.3735      1424.2346    
     21000   400.01136     -1.3203967e+08  3534.1477      1424.2346    
     22000   399.98216     -1.3203901e+08  3433.993       1424.2346    
     23000   399.96723     -1.3203822e+08  3428.1972      1424.2346    
     24000   400.01157     -1.3203869e+08  3451.8431      1424.2346    
     25000   399.99157     -1.3203922e+08  3503.4257      1424.2346    
     26000   400.00809     -1.32039e+08    3531.2994      1424.2346    
     27000   400.01034     -1.3203912e+08  3519.2709      1424.2346    
     28000   400.02395     -1.3203887e+08  3500.5119      1424.2346    
     29000   400.05358     -1.3203864e+08  3482.2811      1424.2346    
     30000   400.11055     -1.3203908e+08  3480.6778      1424.2346    
     31000   400.00013     -1.3203883e+08  3494.5674      1424.2346    
     32000   400.02633     -1.3203917e+08  3511.3183      1424.2346    
     33000   399.90045     -1.3203907e+08  3514.1869      1424.2346    
     34000   400.00585     -1.3203913e+08  3512.166       1424.2346    
     35000   399.95791     -1.3203924e+08  3490.4012      1424.2346    
     36000   399.98634     -1.3203907e+08  3495.3354      1424.2346    
     37000   399.97936     -1.3203909e+08  3494.1752      1424.2346    
     38000   399.9654      -1.3203903e+08  3503.597       1424.2346    
     39000   400.02277     -1.3203953e+08  3494.4592      1424.2346    
     40000   399.98026     -1.3203926e+08  3498.4656      1424.2346    
     41000   400.0333      -1.3203943e+08  3489.305       1424.2346    
     42000   400.01013     -1.3203887e+08  3491.9797      1424.2346    
     43000   400.06133     -1.3203915e+08  3496.0328      1424.2346    
     44000   399.93338     -1.3203909e+08  3498.9678      1424.2346    
     45000   400.00226     -1.3203932e+08  3503.4366      1424.2346    
     46000   399.91395     -1.3203901e+08  3509.037       1424.2346    
     47000   400.05385     -1.3203941e+08  3508.8436      1424.2346    
     48000   400.02043     -1.3203926e+08  3499.6928      1424.2346    
     49000   399.97953     -1.3203944e+08  3486.4309      1424.2346    
     50000   399.91903     -1.3203918e+08  3486.8855      1424.2346    
Loop time of 685.165 on 32 procs for 50000 steps with 37948320 atoms

Performance: 12.610 ns/day, 1.903 hours/ns, 72.975 timesteps/s
72.7% CPU use with 32 MPI tasks x 1 OpenMP threads

MPI task timing breakdown:
Section |  min time  |  avg time  |  max time  |%varavg| %total
---------------------------------------------------------------
Pair    | 233.37     | 250.32     | 264.09     |  64.3 | 36.53
Neigh   | 26.252     | 39.404     | 55.458     | 154.4 |  5.75
Comm    | 41.899     | 54.796     | 67.9       | 164.5 |  8.00
Output  | 0.010918   | 0.48765    | 0.91204    |  47.8 |  0.07
Modify  | 189.85     | 266.5      | 341.63     | 440.8 | 38.90
Other   |            | 73.66      |            |       | 10.75

Nlocal:    1.18588e+06 ave 1.50526e+06 max      855235 min
Histogram: 16 0 0 0 0 0 0 0 0 16
Nghost:         185141 ave      217376 max      152119 min
Histogram: 16 0 0 0 0 0 0 0 0 16
Neighs:    8.58996e+07 ave 1.09037e+08 max 6.19564e+07 min
Histogram: 16 0 0 0 0 0 0 0 0 16
FullNghs:            0 ave           0 max           0 min
Histogram: 32 0 0 0 0 0 0 0 0 0

Total # of neighbors = 2.7487881e+09
Ave neighs/atom = 72.435042
Neighbor list builds = 972
Dangerous builds = 0
unfix ensemble
write_data ${temp}_relaxed_config.lmp
write_data 400_relaxed_config.lmp
System init for write_data ...
#unfix freez
######################################
## NVT Langevin ##
#variable a loop 50
#label loop

#variable Ti equal ${temp}+($a-1)*4
#variable Tf equal ${temp}+$a*4
#reset_ids
#change_box all x scale ${eps} remap units box
fix        2 all deform 1 x erate ${sratex} units box remap x
fix        2 all deform 1 x erate 5e-06 units box remap x
#fix 1 all langevin ${temp} ${temp} 5 98

# Write dump file
#dump        shear all custom 500000 dump.min_*.lammpstrj id x y z # vx vy vz

#dump        defect all custom 100 dump.defect_*.lammpstrj id x y z c_csym
#dump_modify defect thresh c_csym <= 10 thresh c_csym > 4

fix         ensemble all nve
run 5000000
Per MPI rank memory allocation (min/avg/max) = 418.9 | 460.2 | 502 Mbytes
   Step          Temp          PotEng         Press            Lx      
     50000   399.91903     -1.3203918e+08  3486.8855      1424.2346    
     51000   399.86982     -1.3203959e+08  3480.766       1424.2488    
     52000   399.90904     -1.3203915e+08  3497.0642      1424.2631    
     53000   399.93809     -1.3203937e+08  3492.307       1424.2773    
     54000   400.00817     -1.3203948e+08  3501.8305      1424.2915    
     55000   399.93961     -1.3203888e+08  3487.0787      1424.3058    
     56000   399.97024     -1.3203934e+08  3470.3311      1424.32      
     57000   399.98151     -1.3203921e+08  3461.3625      1424.3343    
     58000   399.98144     -1.3203917e+08  3457.0339      1424.3485    
     59000   399.92872     -1.3203906e+08  3468.736       1424.3628    
     60000   400.06447     -1.3203943e+08  3471.5198      1424.377     
     61000   400.00203     -1.3203905e+08  3473.865       1424.3912    
     62000   400.05121     -1.3203896e+08  3463.393       1424.4055    
     63000   399.94124     -1.3203861e+08  3462.2758      1424.4197    
     64000   400.0377      -1.3203915e+08  3455.4688      1424.434     
     65000   399.98001     -1.3203875e+08  3449.6161      1424.4482    
     66000   400.07215     -1.3203888e+08  3449.8729      1424.4625    
     67000   399.99317     -1.3203852e+08  3461.0699      1424.4767    
     68000   400.02916     -1.3203872e+08  3441.8155      1424.4909    
     69000   400.04861     -1.3203851e+08  3437.2627      1424.5052    
     70000   399.98783     -1.3203848e+08  3437.7269      1424.5194    
     71000   399.99163     -1.3203852e+08  3442.5275      1424.5337    
     72000   400.10719     -1.3203908e+08  3443.1046      1424.5479    
     73000   400.06245     -1.3203879e+08  3430.4589      1424.5622    
     74000   400.10941     -1.3203899e+08  3414.9958      1424.5764    
     75000   399.94893     -1.3203869e+08  3425.195       1424.5906    
     76000   400.0976      -1.3203903e+08  3436.2129      1424.6049    
     77000   399.99706     -1.3203841e+08  3435.4658      1424.6191    
     78000   400.04746     -1.3203865e+08  3411.1047      1424.6334    
     79000   400.11889     -1.3203872e+08  3394.8434      1424.6476    
     80000   399.99595     -1.3203855e+08  3381.9603      1424.6618    
     81000   400.04072     -1.3203867e+08  3411.4711      1424.6761    
     82000   400.0627      -1.3203862e+08  3423.5468      1424.6903    
     83000   400.07694     -1.3203918e+08  3403.3907      1424.7046    
     84000   400.06319     -1.3203885e+08  3393.5472      1424.7188    
     85000   400.04592     -1.3203847e+08  3396.9547      1424.7331    
     86000   400.05512     -1.3203877e+08  3387.511       1424.7473    
     87000   400.02765     -1.3203864e+08  3383.4545      1424.7615    
     88000   399.98892     -1.320384e+08   3382.0332      1424.7758    
     89000   400.00109     -1.3203854e+08  3387.0482      1424.79      
     90000   399.96013     -1.3203884e+08  3395.889       1424.8043    
     91000   400.02965     -1.320388e+08   3400.7918      1424.8185    
     92000   399.97195     -1.3203875e+08  3387.7091      1424.8328    
     93000   399.99107     -1.3203918e+08  3368.261       1424.847     
     94000   399.96968     -1.3203893e+08  3363.6254      1424.8612    
     95000   399.92313     -1.3203838e+08  3361.1252      1424.8755    
     96000   399.98325     -1.3203877e+08  3358.6116      1424.8897    
     97000   399.96434     -1.3203881e+08  3368.1589      1424.904     
     98000   400.02749     -1.3203872e+08  3359.3722      1424.9182    
     99000   400.07593     -1.3203862e+08  3359.2472      1424.9325    
    100000   400.07531     -1.3203837e+08  3354.0496      1424.9467    
    101000   399.99037     -1.3203831e+08  3343.8495      1424.9609    
    102000   399.97625     -1.3203848e+08  3336.1192      1424.9752    
    103000   399.97599     -1.3203891e+08  3342.6674      1424.9894    
    104000   399.9269      -1.3203917e+08  3341.1253      1425.0037    
    105000   399.98334     -1.3203929e+08  3347.4062      1425.0179    
    106000   399.97365     -1.3203904e+08  3338.5925      1425.0322    
    107000   399.99442     -1.3203885e+08  3331.2622      1425.0464    
    108000   400.01843     -1.3203864e+08  3327.3968      1425.0606    
    109000   400.04281     -1.3203927e+08  3324.6753      1425.0749    
    110000   400.02672     -1.3203903e+08  3333.1438      1425.0891    
    111000   400.02838     -1.3203917e+08  3329.8883      1425.1034    
    112000   400.02579     -1.3203895e+08  3328.6791      1425.1176    
    113000   399.98307     -1.3203871e+08  3319.8294      1425.1318    
    114000   399.9997      -1.3203895e+08  3318.0744      1425.1461    
    115000   400.01679     -1.3203886e+08  3304.0534      1425.1603    
    116000   400.01469     -1.3203891e+08  3306.5736      1425.1746    
    117000   400.0966      -1.3203915e+08  3306.5946      1425.1888    
    118000   400.03193     -1.3203908e+08  3304.0914      1425.2031    
    119000   399.9052      -1.3203863e+08  3293.5268      1425.2173    
    120000   400.00195     -1.320387e+08   3295.3809      1425.2315    
    121000   399.94468     -1.3203876e+08  3285.7119      1425.2458    
    122000   399.99299     -1.3203891e+08  3285.6626      1425.26      
    123000   399.95589     -1.3203865e+08  3285.2431      1425.2743    
    124000   399.99554     -1.3203901e+08  3283.3224      1425.2885    
    125000   399.99313     -1.3203894e+08  3291.3507      1425.3028    
    126000   399.9688      -1.3203885e+08  3284.103       1425.317     
    127000   400.00244     -1.3203862e+08  3282.0756      1425.3312    
    128000   400.05802     -1.3203881e+08  3266.8449      1425.3455    
    129000   399.96226     -1.3203854e+08  3261.6776      1425.3597    
    130000   400.00439     -1.3203868e+08  3261.7456      1425.374     
    131000   399.99667     -1.3203873e+08  3267.369       1425.3882    
    132000   400.0246      -1.3203881e+08  3270.4063      1425.4025    
    133000   400.01689     -1.3203885e+08  3272.034       1425.4167    
    134000   400.03711     -1.3203887e+08  3265.6938      1425.4309    
    135000   400.09407     -1.320391e+08   3264.0701      1425.4452    
    136000   400.05129     -1.3203886e+08  3254.483       1425.4594    
    137000   399.91565     -1.3203872e+08  3248.1877      1425.4737    
    138000   400.01327     -1.3203897e+08  3245.9658      1425.4879    
    139000   399.91156     -1.3203842e+08  3250.3949      1425.5021    
    140000   400.06118     -1.3203903e+08  3239.9785      1425.5164    
    141000   399.98564     -1.3203844e+08  3243.7035      1425.5306    
    142000   400.03077     -1.320386e+08   3243.6263      1425.5449    
    143000   400.00038     -1.3203908e+08  3227.9337      1425.5591    
    144000   400.00238     -1.3203862e+08  3232.0043      1425.5734    
    145000   400.05154     -1.3203892e+08  3213.6059      1425.5876    
    146000   399.97948     -1.3203859e+08  3224.6678      1425.6018    
    147000   399.97975     -1.3203838e+08  3222.4142      1425.6161    
    148000   400.01636     -1.3203846e+08  3226.079       1425.6303    
    149000   400.06766     -1.3203838e+08  3219.0399      1425.6446    
    150000   400.0798      -1.3203828e+08  3217.7393      1425.6588    
    151000   400.08687     -1.3203844e+08  3211.739       1425.6731    
    152000   400.04861     -1.3203813e+08  3207.2644      1425.6873    
    153000   400.08047     -1.3203856e+08  3194.7364      1425.7015    
    154000   400.07014     -1.3203848e+08  3195.0151      1425.7158    
    155000   400.07456     -1.3203895e+08  3199.1516      1425.73      
    156000   399.94905     -1.3203841e+08  3189.4942      1425.7443    
    157000   399.99878     -1.3203873e+08  3187.3631      1425.7585    
    158000   399.9739      -1.3203877e+08  3175.7085      1425.7728    
    159000   400.09991     -1.3203869e+08  3181.6551      1425.787     
    160000   399.97907     -1.3203856e+08  3179.8594      1425.8012    
    161000   400.02294     -1.320387e+08   3179.3942      1425.8155    
    162000   400.03252     -1.3203836e+08  3184.4376      1425.8297    
    163000   400.12138     -1.3203854e+08  3169.1841      1425.844     
    164000   400.03149     -1.3203797e+08  3169.372       1425.8582    
    165000   400.10627     -1.3203822e+08  3170.0544      1425.8724    
    166000   400.04897     -1.3203814e+08  3175.3647      1425.8867    
    167000   400.10867     -1.3203843e+08  3172.1727      1425.9009    
    168000   400.02182     -1.3203841e+08  3170.0306      1425.9152    
    169000   400.03513     -1.3203823e+08  3162.8636      1425.9294    
    170000   400.01382     -1.3203851e+08  3154.4391      1425.9437    
    171000   399.95766     -1.320386e+08   3147.7834      1425.9579    
    172000   399.94252     -1.3203867e+08  3141.6159      1425.9721    
    173000   400.01492     -1.3203886e+08  3147.7352      1425.9864    
    174000   400.02633     -1.3203859e+08  3139.0911      1426.0006    
    175000   400.00097     -1.3203869e+08  3142.4024      1426.0149    
    176000   399.98367     -1.3203856e+08  3139.7702      1426.0291    
    177000   400.00789     -1.320385e+08   3146.4825      1426.0434    
    178000   399.99679     -1.3203838e+08  3137.2897      1426.0576    
    179000   399.91849     -1.3203827e+08  3131.4044      1426.0718    
    180000   399.96172     -1.3203818e+08  3122.5783      1426.0861    
    181000   400.07676     -1.3203857e+08  3125.4229      1426.1003    
    182000   400.05977     -1.3203842e+08  3130.7931      1426.1146    
    183000   400.02391     -1.320385e+08   3130.7533      1426.1288    
    184000   400.01027     -1.320387e+08   3123.2235      1426.1431    
    185000   399.98903     -1.3203843e+08  3108.6267      1426.1573    
    186000   399.95721     -1.3203852e+08  3104.4854      1426.1715    
    187000   400.00733     -1.3203865e+08  3110.1473      1426.1858    
    188000   399.97833     -1.3203862e+08  3108.3221      1426.2       
    189000   399.94105     -1.3203857e+08  3109.2543      1426.2143    
    190000   399.98826     -1.3203843e+08  3104.503       1426.2285    
    191000   399.94467     -1.3203848e+08  3094.6239      1426.2428    
    192000   399.9575      -1.3203837e+08  3086.882       1426.257     
    193000   399.94733     -1.3203848e+08  3084.7093      1426.2712    
    194000   400.09858     -1.3203878e+08  3087.5208      1426.2855    
    195000   400.12142     -1.3203831e+08  3088.4339      1426.2997    
    196000   400.04067     -1.3203819e+08  3082.4033      1426.314     
    197000   399.99729     -1.3203834e+08  3069.1825      1426.3282    
    198000   400.02965     -1.3203826e+08  3066.8816      1426.3424    
    199000   400.04311     -1.3203839e+08  3081.5677      1426.3567    
    200000   399.9815      -1.3203826e+08  3086.1269      1426.3709    
    201000   400.02444     -1.3203855e+08  3071.2702      1426.3852    
    202000   399.99447     -1.3203829e+08  3070.1029      1426.3994    
    203000   400.02269     -1.3203806e+08  3057.7586      1426.4137    
    204000   400.0008      -1.3203822e+08  3052.0636      1426.4279    
    205000   399.96744     -1.3203857e+08  3052.8875      1426.4421    
    206000   400.00119     -1.3203866e+08  3050.8801      1426.4564    
    207000   400.00296     -1.3203886e+08  3046.2984      1426.4706    
    208000   399.92541     -1.3203878e+08  3040.5455      1426.4849    
    209000   399.81371     -1.3203794e+08  3050.7899      1426.4991    
    210000   399.96798     -1.3203819e+08  3042.7499      1426.5134    
    211000   400.00767     -1.3203829e+08  3040.7199      1426.5276    
    212000   400.01679     -1.3203862e+08  3034.5698      1426.5418    
    213000   399.96206     -1.3203807e+08  3040.4623      1426.5561    
    214000   399.98894     -1.32038e+08    3040.6488      1426.5703    
    215000   400.00794     -1.3203816e+08  3029.6005      1426.5846    
    216000   400.02643     -1.3203786e+08  3023.5576      1426.5988    
    217000   400.00637     -1.3203813e+08  3008.1065      1426.6131    
    218000   400.03142     -1.3203842e+08  3011.2887      1426.6273    
    219000   400.02055     -1.3203825e+08  3006.3994      1426.6415    
    220000   399.94899     -1.3203806e+08  3013.9695      1426.6558    
    221000   399.92693     -1.3203787e+08  3007.1086      1426.67      
    222000   399.94154     -1.3203825e+08  3011.3933      1426.6843    
    223000   399.92561     -1.3203842e+08  3008.8175      1426.6985    
    224000   399.95927     -1.3203828e+08  3003.8289      1426.7127    
    225000   400.02961     -1.3203875e+08  2991.9169      1426.727     
    226000   400.03834     -1.3203844e+08  2995.7668      1426.7412    
    227000   399.98785     -1.3203812e+08  2996.9223      1426.7555    
    228000   400.03988     -1.3203838e+08  2984.8069      1426.7697    
    229000   400.04556     -1.3203828e+08  2985.3736      1426.784     
    230000   400.01447     -1.3203847e+08  2991.7103      1426.7982    
    231000   399.95788     -1.3203781e+08  2995.5306      1426.8124    
    232000   399.9834      -1.3203791e+08  2993.2649      1426.8267    
    233000   399.99296     -1.3203791e+08  2983.7301      1426.8409    
    234000   399.93727     -1.3203824e+08  2975.551       1426.8552    
    235000   400.01304     -1.3203821e+08  2965.9327      1426.8694    
    236000   399.99819     -1.3203792e+08  2954.3533      1426.8837    
    237000   399.96        -1.3203834e+08  2956.7027      1426.8979    
    238000   399.99618     -1.3203833e+08  2962.0377      1426.9121    
    239000   400.00862     -1.3203817e+08  2964.8143      1426.9264    
    240000   399.9523      -1.3203802e+08  2962.7492      1426.9406    
    241000   400.06602     -1.3203813e+08  2966.3834      1426.9549    
    242000   399.99333     -1.3203772e+08  2971.4077      1426.9691    
    243000   400.11423     -1.3203815e+08  2964.7764      1426.9834    
    244000   400.03572     -1.3203769e+08  2959.4552      1426.9976    
    245000   400.04285     -1.3203815e+08  2950.0348      1427.0118    
    246000   400.00156     -1.3203775e+08  2954.1152      1427.0261    
    247000   400.0183      -1.3203786e+08  2946.6607      1427.0403    
    248000   400.06222     -1.3203812e+08  2939.5793      1427.0546    
    249000   399.99199     -1.3203782e+08  2929.9981      1427.0688    
    250000   399.97721     -1.32038e+08    2921.7378      1427.083     
    251000   400.02291     -1.3203875e+08  2928.7832      1427.0973    
    252000   399.95376     -1.3203839e+08  2939.3865      1427.1115    
    253000   399.95306     -1.32038e+08    2926.927       1427.1258    
    254000   399.91906     -1.3203827e+08  2909.8763      1427.14      
    255000   399.99624     -1.3203818e+08  2905.4316      1427.1543    
    256000   400.08682     -1.3203799e+08  2905.1952      1427.1685    
    257000   400.01922     -1.3203751e+08  2915.7079      1427.1827    
    258000   400.04964     -1.3203758e+08  2910.188       1427.197     
    259000   400.07421     -1.3203804e+08  2900.2416      1427.2112    
    260000   400.11701     -1.3203789e+08  2901.7528      1427.2255    
    261000   400.10053     -1.3203755e+08  2899.237       1427.2397    
    262000   400.01508     -1.3203721e+08  2897.5959      1427.254     
    263000   399.91956     -1.3203784e+08  2886.1781      1427.2682    
    264000   399.90022     -1.320377e+08   2895.2268      1427.2824    
    265000   399.94959     -1.3203811e+08  2891.7882      1427.2967    
    266000   399.99999     -1.3203809e+08  2888.5683      1427.3109    
    267000   399.96374     -1.3203814e+08  2876.091       1427.3252    
    268000   400.02857     -1.3203791e+08  2884.9696      1427.3394    
    269000   400.0002      -1.3203759e+08  2883.6636      1427.3537    
    270000   400.06867     -1.3203776e+08  2875.2028      1427.3679    
    271000   400.01159     -1.3203804e+08  2874.6639      1427.3821    
    272000   400.05699     -1.3203769e+08  2870.2338      1427.3964    
    273000   399.99634     -1.3203766e+08  2871.0718      1427.4106    
    274000   400.00037     -1.3203727e+08  2864.738       1427.4249    
    275000   400.07197     -1.3203765e+08  2861.1944      1427.4391    
    276000   400.07068     -1.3203753e+08  2846.1102      1427.4533    
    277000   400.00287     -1.3203705e+08  2850.9682      1427.4676    
    278000   400.05165     -1.3203749e+08  2847.1328      1427.4818    
    279000   400.03309     -1.3203729e+08  2845.419       1427.4961    
    280000   399.99781     -1.3203724e+08  2852.1316      1427.5103    
    281000   399.98331     -1.3203734e+08  2855.7729      1427.5246    
    282000   400.04503     -1.3203799e+08  2842.7498      1427.5388    
    283000   399.95761     -1.3203787e+08  2840.9566      1427.553     
    284000   399.98548     -1.3203767e+08  2832.8785      1427.5673    
    285000   400.07132     -1.3203778e+08  2829.9657      1427.5815    
    286000   400.03497     -1.3203741e+08  2825.6033      1427.5958    
    287000   400.02169     -1.3203759e+08  2831.9898      1427.61      
    288000   400.06735     -1.3203755e+08  2840.1531      1427.6243    
    289000   400.06977     -1.3203724e+08  2841.1247      1427.6385    
    290000   400.02699     -1.3203729e+08  2837.0973      1427.6527    
    291000   400.06419     -1.3203761e+08  2816.8371      1427.667     
    292000   400.00603     -1.3203757e+08  2811.9037      1427.6812    
    293000   399.96709     -1.3203727e+08  2811.0791      1427.6955    
    294000   400.02822     -1.3203752e+08  2808.3691      1427.7097    
    295000   400.03477     -1.3203738e+08  2807.4358      1427.724     
    296000   400.13091     -1.3203722e+08  2805.2929      1427.7382    
    297000   399.98464     -1.3203725e+08  2796.0699      1427.7524    
    298000   399.97812     -1.3203757e+08  2788.1283      1427.7667    
    299000   400.05422     -1.3203739e+08  2791.7298      1427.7809    
    300000   400.08026     -1.3203753e+08  2786.5961      1427.7952    
    301000   400.04574     -1.3203742e+08  2791.9273      1427.8094    
    302000   400.012       -1.3203687e+08  2791.3671      1427.8237    
    303000   400.11409     -1.3203721e+08  2784.9612      1427.8379    
    304000   400.17988     -1.3203737e+08  2782.7277      1427.8521    
    305000   400.08778     -1.3203722e+08  2778.7246      1427.8664    
    306000   400.0156      -1.320373e+08   2771.0307      1427.8806    
    307000   400.00137     -1.3203752e+08  2774.6849      1427.8949    
    308000   399.9812      -1.3203699e+08  2776.324       1427.9091    
    309000   400.04024     -1.3203699e+08  2768.7212      1427.9233    
    310000   400.0173      -1.3203691e+08  2759.155       1427.9376    
    311000   400.0071      -1.3203723e+08  2749.2279      1427.9518    
    312000   399.95976     -1.3203722e+08  2760.8077      1427.9661    
    313000   399.9233      -1.3203726e+08  2765.9457      1427.9803    
    314000   399.96161     -1.3203759e+08  2758.6409      1427.9946    
    315000   399.93061     -1.3203761e+08  2748.5111      1428.0088    
    316000   399.87674     -1.3203702e+08  2740.7505      1428.023     
    317000   399.9252      -1.3203749e+08  2736.9231      1428.0373    
    318000   399.97978     -1.3203761e+08  2742.0472      1428.0515    
    319000   399.98446     -1.3203749e+08  2745.2136      1428.0658    
    320000   399.87866     -1.3203732e+08  2747.2985      1428.08      
    321000   400.01194     -1.3203729e+08  2734.0085      1428.0943    
    322000   399.99147     -1.3203722e+08  2729.0927      1428.1085    
    323000   400.03195     -1.3203711e+08  2719.4404      1428.1227    
    324000   400.03479     -1.3203691e+08  2718.3319      1428.137     
    325000   399.98346     -1.3203708e+08  2715.408       1428.1512    
    326000   399.97332     -1.3203706e+08  2708.8919      1428.1655    
    327000   399.96015     -1.3203707e+08  2709.5419      1428.1797    
    328000   399.98312     -1.3203684e+08  2713.5292      1428.194     
    329000   400.02269     -1.3203715e+08  2714.3287      1428.2082    
    330000   399.95757     -1.3203721e+08  2713.2476      1428.2224    
    331000   399.98587     -1.3203759e+08  2713.9484      1428.2367    
    332000   399.90074     -1.3203691e+08  2711.4532      1428.2509    
    333000   400.04665     -1.320372e+08   2693.5933      1428.2652    
    334000   400.01969     -1.320371e+08   2682.1744      1428.2794    
    335000   399.99153     -1.3203682e+08  2691.5886      1428.2936    
    336000   400.02123     -1.3203698e+08  2701.2823      1428.3079    
    337000   399.97628     -1.3203727e+08  2693.6043      1428.3221    
    338000   400.05867     -1.3203723e+08  2688.7377      1428.3364    
    339000   400.02652     -1.3203688e+08  2675.4124      1428.3506    
    340000   400.04145     -1.3203683e+08  2673.8907      1428.3649    
    341000   400.03566     -1.3203723e+08  2668.3473      1428.3791    
    342000   400.01734     -1.3203659e+08  2679.2071      1428.3933    
    343000   400.04495     -1.3203667e+08  2674.0046      1428.4076    
    344000   399.98748     -1.3203665e+08  2677.4065      1428.4218    
    345000   399.93446     -1.320366e+08   2667.4717      1428.4361    
    346000   399.99106     -1.3203663e+08  2667.4312      1428.4503    
    347000   399.98203     -1.3203674e+08  2650.3367      1428.4646    
    348000   399.96782     -1.320371e+08   2646.6166      1428.4788    
    349000   399.98001     -1.3203725e+08  2639.9611      1428.493     
    350000   399.94074     -1.3203662e+08  2650.995       1428.5073    
    351000   399.94127     -1.3203625e+08  2651.5925      1428.5215    
    352000   399.99854     -1.3203666e+08  2653.4531      1428.5358    
    353000   399.9987      -1.3203648e+08  2643.2141      1428.55      
    354000   400.04282     -1.3203679e+08  2635.2983      1428.5643    
    355000   400.03211     -1.3203662e+08  2626.9433      1428.5785    
    356000   400.02282     -1.320364e+08   2628.8202      1428.5927    
    357000   400.01973     -1.3203652e+08  2637.2517      1428.607     
    358000   400.06824     -1.3203689e+08  2648.7428      1428.6212    
    359000   399.98323     -1.320365e+08   2649.2641      1428.6355    
    360000   399.98641     -1.3203669e+08  2630.2565      1428.6497    
    361000   399.99648     -1.3203647e+08  2614.8474      1428.6639    
    362000   400.00733     -1.3203645e+08  2612.0761      1428.6782    
    363000   399.96645     -1.3203659e+08  2608.6109      1428.6924    
    364000   399.96973     -1.3203602e+08  2617.2876      1428.7067    
    365000   400.05235     -1.3203654e+08  2614.0798      1428.7209    
    366000   400.02564     -1.3203668e+08  2604.6154      1428.7352    
    367000   399.97797     -1.3203647e+08  2600.9226      1428.7494    
    368000   399.98529     -1.3203644e+08  2606.4195      1428.7636    
    369000   400.00332     -1.3203695e+08  2602.887       1428.7779    
    370000   399.93625     -1.3203632e+08  2607.8505      1428.7921    
    371000   399.99157     -1.320367e+08   2591.4979      1428.8064    
    372000   399.88724     -1.3203644e+08  2575.8451      1428.8206    
    373000   399.97975     -1.3203647e+08  2573.5401      1428.8349    
    374000   400.00257     -1.3203646e+08  2583.1601      1428.8491    
    375000   399.96399     -1.3203626e+08  2595.5421      1428.8633    
    376000   400.04178     -1.3203649e+08  2591.3668      1428.8776    
    377000   399.98921     -1.3203638e+08  2577.348       1428.8918    
    378000   400.03016     -1.320361e+08   2568.7995      1428.9061    
    379000   400.04777     -1.3203604e+08  2565.3405      1428.9203    
    380000   400.10141     -1.3203637e+08  2572.7282      1428.9346    
    381000   400.00262     -1.3203593e+08  2574.3258      1428.9488    
    382000   400.01481     -1.3203643e+08  2565.6284      1428.963     
    383000   399.95871     -1.3203609e+08  2551.7338      1428.9773    
    384000   399.98018     -1.3203631e+08  2552.8874      1428.9915    
    385000   399.96578     -1.3203644e+08  2559.1312      1429.0058    
    386000   399.96841     -1.3203635e+08  2559.4403      1429.02      
    387000   399.96741     -1.3203629e+08  2551.5173      1429.0343    
    388000   399.96186     -1.3203636e+08  2544.0507      1429.0485    
    389000   400.01562     -1.3203647e+08  2542.9853      1429.0627    
    390000   399.95678     -1.3203647e+08  2548.4179      1429.077     
    391000   400.03159     -1.3203657e+08  2553.0582      1429.0912    
    392000   400.05861     -1.3203619e+08  2542.06        1429.1055    
    393000   400.05043     -1.3203605e+08  2529.9247      1429.1197    
    394000   400.02237     -1.320361e+08   2528.1373      1429.1339    
    395000   399.96484     -1.3203605e+08  2519.6657      1429.1482    
    396000   400.03686     -1.3203641e+08  2523.7342      1429.1624    
    397000   400.0071      -1.3203601e+08  2521.2839      1429.1767    
    398000   400.09372     -1.3203638e+08  2529.2982      1429.1909    
    399000   400.05127     -1.3203635e+08  2518.4531      1429.2052    
    400000   399.98989     -1.3203656e+08  2514.642       1429.2194    
    401000   399.93545     -1.3203653e+08  2502.0249      1429.2336    
    402000   399.93897     -1.3203615e+08  2507.0413      1429.2479    
    403000   399.90774     -1.3203608e+08  2499.1725      1429.2621    
    404000   400.04051     -1.3203638e+08  2501.5403      1429.2764    
    405000   399.96151     -1.3203605e+08  2507.3836      1429.2906    
    406000   399.94209     -1.3203615e+08  2507.6684      1429.3049    
    407000   399.96751     -1.3203616e+08  2500.8992      1429.3191    
    408000   399.96311     -1.3203604e+08  2496.4732      1429.3333    
    409000   399.88146     -1.3203599e+08  2473.4203      1429.3476    
    410000   399.97828     -1.3203615e+08  2478.3092      1429.3618    
    411000   399.92793     -1.3203635e+08  2474.8949      1429.3761    
    412000   399.98352     -1.3203661e+08  2479.1097      1429.3903    
    413000   399.97185     -1.3203639e+08  2477.2856      1429.4046    
    414000   399.97475     -1.3203591e+08  2479.1836      1429.4188    
    415000   400.06192     -1.3203607e+08  2473.2442      1429.433     
    416000   400.01717     -1.3203628e+08  2473.5142      1429.4473    
    417000   399.98322     -1.3203581e+08  2471.254       1429.4615    
    418000   400.00866     -1.3203543e+08  2465.4528      1429.4758    
    419000   400.02454     -1.3203583e+08  2460.4685      1429.49      
    420000   399.9925      -1.3203633e+08  2455.8035      1429.5042    
    421000   399.94064     -1.3203575e+08  2452.785       1429.5185    
    422000   399.94886     -1.3203593e+08  2447.2978      1429.5327    
    423000   399.9548      -1.32036e+08    2444.8795      1429.547     
    424000   400.0431      -1.3203612e+08  2449.0573      1429.5612    
    425000   399.97477     -1.3203564e+08  2448.278       1429.5755    
    426000   400.0191      -1.3203592e+08  2445.4369      1429.5897    
    427000   399.99592     -1.3203544e+08  2443.6525      1429.6039    
    428000   399.96511     -1.3203544e+08  2439.583       1429.6182    
    429000   399.94934     -1.3203576e+08  2437.3514      1429.6324    
    430000   400.06014     -1.3203611e+08  2436.2842      1429.6467    
    431000   400.08416     -1.3203606e+08  2436.2783      1429.6609    
    432000   400.04165     -1.3203579e+08  2426.696       1429.6752    
    433000   399.95474     -1.3203547e+08  2422.8568      1429.6894    
    434000   399.91977     -1.3203569e+08  2414.9206      1429.7036    
    435000   400.04208     -1.3203605e+08  2418.3725      1429.7179    
    436000   399.965       -1.3203538e+08  2422.3675      1429.7321    
    437000   399.99177     -1.3203586e+08  2415.3903      1429.7464    
    438000   399.89489     -1.3203588e+08  2397.9783      1429.7606    
    439000   399.95344     -1.3203595e+08  2386.3929      1429.7749    
    440000   399.94041     -1.3203585e+08  2389.535       1429.7891    
    441000   399.93027     -1.3203602e+08  2402.1392      1429.8033    
    442000   399.9521      -1.3203583e+08  2408.4214      1429.8176    
    443000   399.95657     -1.3203574e+08  2408.0613      1429.8318    
    444000   399.92705     -1.3203575e+08  2393.033       1429.8461    
    445000   400.02384     -1.3203604e+08  2386.9371      1429.8603    
    446000   399.95147     -1.3203554e+08  2383.6913      1429.8745    
    447000   399.97228     -1.3203553e+08  2386.0018      1429.8888    
    448000   399.98495     -1.3203533e+08  2385.9365      1429.903     
    449000   400.01775     -1.3203561e+08  2372.3739      1429.9173    
    450000   400.0736      -1.3203579e+08  2377.2921      1429.9315    
    451000   400.03893     -1.3203524e+08  2373.5341      1429.9458    
    452000   400.06376     -1.3203534e+08  2380.4228      1429.96      
    453000   400.01494     -1.3203516e+08  2379.4835      1429.9742    
    454000   400.02819     -1.3203507e+08  2373.4493      1429.9885    
    455000   400.01843     -1.3203517e+08  2365.4336      1430.0027    
    456000   399.96982     -1.3203514e+08  2362.1411      1430.017     
    457000   400.01618     -1.3203575e+08  2348.7528      1430.0312    
    458000   399.99056     -1.3203549e+08  2356.2826      1430.0455    
    459000   400.05607     -1.3203569e+08  2352.7975      1430.0597    
    460000   399.91756     -1.3203523e+08  2362.3257      1430.0739    
    461000   399.92368     -1.3203526e+08  2353.5181      1430.0882    
    462000   399.88418     -1.3203536e+08  2352.0853      1430.1024    
    463000   400.01793     -1.3203579e+08  2337.7398      1430.1167    
    464000   399.94468     -1.320351e+08   2338.6115      1430.1309    
    465000   400.0262      -1.3203551e+08  2321.4078      1430.1452    
    466000   399.94451     -1.3203521e+08  2326.4777      1430.1594    
    467000   399.95277     -1.320351e+08   2325.4862      1430.1736    
    468000   400.02835     -1.3203488e+08  2336.8341      1430.1879    
    469000   399.93748     -1.3203527e+08  2339.5193      1430.2021    
    470000   399.93149     -1.320355e+08   2328.1817      1430.2164    
    471000   400.01234     -1.3203536e+08  2331.2504      1430.2306    
    472000   400.04827     -1.3203542e+08  2314.8986      1430.2448    
    473000   400.00594     -1.3203519e+08  2311.3369      1430.2591    
    474000   399.89246     -1.3203503e+08  2306.0146      1430.2733    
    475000   399.94914     -1.3203486e+08  2300.8927      1430.2876    
    476000   399.98229     -1.320351e+08   2312.4864      1430.3018    
    477000   399.93722     -1.3203535e+08  2316.4493      1430.3161    
    478000   399.98083     -1.3203532e+08  2306.1912      1430.3303    
    479000   399.93502     -1.3203509e+08  2294.7498      1430.3445    
    480000   399.96464     -1.3203568e+08  2288.7857      1430.3588    
    481000   399.9228      -1.3203528e+08  2286.9738      1430.373     
    482000   400.01456     -1.3203528e+08  2295.1379      1430.3873    
    483000   400.00896     -1.3203501e+08  2288.1575      1430.4015    
    484000   399.98113     -1.3203461e+08  2281.0521      1430.4158    
    485000   400.04224     -1.3203452e+08  2278.4029      1430.43      
    486000   400.03765     -1.3203451e+08  2284.5747      1430.4442    
    487000   400.02437     -1.3203452e+08  2279.734       1430.4585    
    488000   400.07243     -1.3203454e+08  2277.2233      1430.4727    
    489000   400.08448     -1.3203422e+08  2271.6914      1430.487     
    490000   399.96171     -1.320342e+08   2267.2253      1430.5012    
    491000   400.04833     -1.3203497e+08  2253.7352      1430.5155    
    492000   400.01135     -1.320344e+08   2254.8419      1430.5297    
    493000   400.01995     -1.3203461e+08  2256.8986      1430.5439    
    494000   399.96853     -1.3203438e+08  2262.8102      1430.5582    
    495000   400.10201     -1.3203486e+08  2253.5723      1430.5724    
    496000   400.00964     -1.3203471e+08  2249.8231      1430.5867    
    497000   400.06725     -1.3203479e+08  2237.1617      1430.6009    
    498000   400.02792     -1.3203463e+08  2242.1267      1430.6152    
    499000   399.99978     -1.3203432e+08  2243.6507      1430.6294    
    500000   399.99333     -1.3203401e+08  2243.7648      1430.6436    
    501000   400.08227     -1.3203435e+08  2245.2106      1430.6579    
    502000   399.98486     -1.3203388e+08  2236.3907      1430.6721    
    503000   399.98769     -1.3203422e+08  2230.2448      1430.6864    
    504000   400.03232     -1.3203459e+08  2239.7566      1430.7006    
    505000   400.02174     -1.3203472e+08  2239.4159      1430.7148    
    506000   400.02419     -1.3203463e+08  2230.0524      1430.7291    
    507000   400.00472     -1.3203427e+08  2224.0702      1430.7433    
    508000   400.11443     -1.3203439e+08  2216.2543      1430.7576    
    509000   400.05132     -1.3203393e+08  2214.8956      1430.7718    
    510000   400.0322      -1.3203403e+08  2216.032       1430.7861    
    511000   400.01839     -1.3203403e+08  2218.2688      1430.8003    
    512000   400.06766     -1.3203428e+08  2207.6653      1430.8145    
    513000   400.04336     -1.3203431e+08  2202.4238      1430.8288    
    514000   399.99161     -1.32034e+08    2194.8988      1430.843     
    515000   400.02067     -1.320344e+08   2186.483       1430.8573    
    516000   400.06392     -1.3203437e+08  2196.088       1430.8715    
    517000   399.9517      -1.3203463e+08  2198.5769      1430.8858    
    518000   400.09875     -1.3203481e+08  2197.2278      1430.9       
    519000   400.08232     -1.3203459e+08  2186.7714      1430.9142    
    520000   400.01093     -1.3203438e+08  2187.546       1430.9285    
    521000   400.01084     -1.3203427e+08  2174.2424      1430.9427    
    522000   399.96169     -1.3203424e+08  2179.8401      1430.957     
    523000   400.01299     -1.3203431e+08  2178.3306      1430.9712    
    524000   399.94322     -1.3203425e+08  2173.0219      1430.9855    
    525000   400.01559     -1.3203432e+08  2168.5371      1430.9997    
    526000   400.00103     -1.3203395e+08  2167.3102      1431.0139    
    527000   400.02269     -1.3203385e+08  2170.8196      1431.0282    
    528000   400.03626     -1.3203397e+08  2153.5921      1431.0424    
    529000   400.00853     -1.3203394e+08  2162.431       1431.0567    
    530000   400.06303     -1.3203416e+08  2149.2891      1431.0709    
    531000   400.04057     -1.3203428e+08  2163.4991      1431.0851    
    532000   400.02189     -1.3203399e+08  2152.5051      1431.0994    
    533000   399.99106     -1.3203371e+08  2149.8329      1431.1136    
    534000   400.08839     -1.3203429e+08  2134.863       1431.1279    
    535000   400.00753     -1.3203411e+08  2144.242       1431.1421    
    536000   400.01055     -1.3203422e+08  2153.7067      1431.1564    
    537000   400.02573     -1.3203409e+08  2157.4379      1431.1706    
    538000   399.97153     -1.3203378e+08  2150.4764      1431.1848    
    539000   400.00716     -1.3203382e+08  2135.2501      1431.1991    
    540000   399.98392     -1.3203347e+08  2132.4002      1431.2133    
    541000   399.99728     -1.3203358e+08  2132.6256      1431.2276    
    542000   399.98352     -1.3203373e+08  2126.3258      1431.2418    
    543000   400.01219     -1.3203374e+08  2126.3146      1431.2561    
    544000   400.05806     -1.3203409e+08  2124.386       1431.2703    
    545000   400.00204     -1.3203361e+08  2121.0255      1431.2845    
    546000   400.00746     -1.3203352e+08  2118.6482      1431.2988    
    547000   399.968       -1.3203372e+08  2102.8408      1431.313     
    548000   400.03174     -1.3203374e+08  2106.2764      1431.3273    
    549000   399.94073     -1.3203339e+08  2102.8184      1431.3415    
    550000   400.00173     -1.3203397e+08  2100.206       1431.3558    
    551000   400.02143     -1.3203396e+08  2091.9652      1431.37      
    552000   400.03096     -1.3203408e+08  2097.0105      1431.3842    
    553000   399.96516     -1.3203392e+08  2088.567       1431.3985    
    554000   400.00044     -1.3203381e+08  2086.046       1431.4127    
    555000   400.00018     -1.3203375e+08  2089.2861      1431.427     
    556000   399.96292     -1.3203336e+08  2094.4866      1431.4412    
    557000   400.03262     -1.320336e+08   2087.5611      1431.4554    
    558000   399.99806     -1.3203369e+08  2087.791       1431.4697    
    559000   399.99061     -1.3203339e+08  2084.125       1431.4839    
    560000   400.04628     -1.320339e+08   2079.2135      1431.4982    
    561000   399.99495     -1.3203377e+08  2073.887       1431.5124    
    562000   399.97503     -1.3203347e+08  2071.0624      1431.5267    
    563000   399.9863      -1.3203308e+08  2071.8035      1431.5409    
    564000   400.07708     -1.3203362e+08  2066.4459      1431.5551    
    565000   400.02222     -1.3203339e+08  2063.1894      1431.5694    
    566000   399.91599     -1.3203339e+08  2063.1172      1431.5836    
    567000   400.0307      -1.3203351e+08  2059.0761      1431.5979    
    568000   400.00656     -1.3203311e+08  2057.9427      1431.6121    
    569000   400.06498     -1.3203325e+08  2046.8178      1431.6264    
    570000   399.95707     -1.3203318e+08  2044.5811      1431.6406    
    571000   399.96448     -1.3203376e+08  2047.3457      1431.6548    
    572000   399.90488     -1.3203364e+08  2054.5078      1431.6691    
    573000   399.93068     -1.3203391e+08  2054.7326      1431.6833    
    574000   399.87341     -1.3203358e+08  2042.6432      1431.6976    
    575000   399.94998     -1.3203364e+08  2040.3407      1431.7118    
    576000   399.93802     -1.3203349e+08  2035.1211      1431.7261    
    577000   399.94057     -1.3203334e+08  2034.1099      1431.7403    
    578000   399.95493     -1.3203306e+08  2028.8663      1431.7545    
    579000   400.0182      -1.3203306e+08  2021.419       1431.7688    
    580000   399.98889     -1.3203279e+08  2009.3472      1431.783     
    581000   400.01172     -1.3203261e+08  2010.0908      1431.7973    
    582000   400.10395     -1.320327e+08   2003.9435      1431.8115    
    583000   400.07714     -1.3203285e+08  2013.8596      1431.8257    
    584000   400.02723     -1.3203289e+08  2011.0033      1431.84      
    585000   400.02058     -1.3203262e+08  2009.1536      1431.8542    
    586000   400.06304     -1.3203301e+08  2003.5944      1431.8685    
    587000   400.01987     -1.3203256e+08  2007.9784      1431.8827    
    588000   400.02877     -1.3203275e+08  1998.5693      1431.897     
    589000   399.97586     -1.3203248e+08  2004.1456      1431.9112    
    590000   400.07251     -1.3203264e+08  2002.5528      1431.9254    
    591000   400.00179     -1.3203291e+08  1994.8369      1431.9397    
    592000   399.96315     -1.3203285e+08  1991.4412      1431.9539    
    593000   399.96712     -1.3203299e+08  1987.5199      1431.9682    
    594000   399.98611     -1.3203306e+08  1981.6682      1431.9824    
    595000   399.92262     -1.3203266e+08  1984.1661      1431.9967    
    596000   400.03509     -1.3203306e+08  1980.898       1432.0109    
    597000   399.95635     -1.3203276e+08  1979.3883      1432.0251    
    598000   400.00023     -1.3203297e+08  1971.3057      1432.0394    
    599000   399.99557     -1.320326e+08   1971.5442      1432.0536    
    600000   400.00868     -1.3203267e+08  1977.7146      1432.0679    
    601000   399.90525     -1.3203257e+08  1979.1113      1432.0821    
    602000   400.05662     -1.3203322e+08  1973.7753      1432.0964    
    603000   400.03384     -1.3203266e+08  1965.3226      1432.1106    
    604000   400.02602     -1.3203254e+08  1969.4511      1432.1248    
    605000   400.08983     -1.3203237e+08  1949.3238      1432.1391    
    606000   400.05912     -1.3203215e+08  1947.9642      1432.1533    
    607000   400.06837     -1.3203233e+08  1935.6569      1432.1676    
    608000   400.06791     -1.3203268e+08  1945.9967      1432.1818    
    609000   400.05269     -1.3203242e+08  1946.0722      1432.1961    
    610000   399.99767     -1.3203225e+08  1957.7714      1432.2103    
    611000   399.96702     -1.3203224e+08  1941.3704      1432.2245    
    612000   399.9582      -1.3203252e+08  1938.3599      1432.2388    
    613000   399.94117     -1.3203254e+08  1931.7855      1432.253     
    614000   399.9634      -1.3203221e+08  1933.6763      1432.2673    
    615000   399.93583     -1.3203224e+08  1929.6342      1432.2815    
    616000   399.88336     -1.320324e+08   1928.6075      1432.2957    
    617000   399.93688     -1.3203266e+08  1925.3818      1432.31      
    618000   400.06706     -1.32033e+08    1921.8379      1432.3242    
    619000   399.95008     -1.3203242e+08  1915.7369      1432.3385    
    620000   399.91096     -1.3203224e+08  1903.022       1432.3527    
    621000   399.9431      -1.3203176e+08  1905.1013      1432.367     
    622000   399.91982     -1.3203204e+08  1910.8968      1432.3812    
    623000   399.9441      -1.3203193e+08  1910.7813      1432.3954    
    624000   399.99958     -1.3203234e+08  1904.0316      1432.4097    
    625000   400.02242     -1.3203236e+08  1914.9443      1432.4239    
    626000   399.88636     -1.3203186e+08  1906.6219      1432.4382    
    627000   399.98753     -1.3203198e+08  1898.2563      1432.4524    
    628000   400.02194     -1.3203232e+08  1885.7658      1432.4667    
    629000   399.98759     -1.3203188e+08  1891.6016      1432.4809    
    630000   399.98521     -1.320319e+08   1895.7121      1432.4951    
    631000   399.95423     -1.3203213e+08  1901.9753      1432.5094    
    632000   399.94202     -1.3203234e+08  1889.9703      1432.5236    
    633000   399.98028     -1.3203237e+08  1884.1332      1432.5379    
    634000   400.02481     -1.3203219e+08  1877.2287      1432.5521    
    635000   400.01711     -1.3203188e+08  1874.6789      1432.5664    
    636000   400.01589     -1.320318e+08   1869.5774      1432.5806    
    637000   400.01879     -1.3203129e+08  1867.3145      1432.5948    
    638000   400.05701     -1.3203173e+08  1867.0576      1432.6091    
    639000   400.00281     -1.3203185e+08  1865.1546      1432.6233    
    640000   400.07756     -1.3203223e+08  1862.1047      1432.6376    
    641000   399.8813      -1.3203182e+08  1863.9694      1432.6518    
    642000   399.99323     -1.3203197e+08  1854.6992      1432.666     
    643000   400.01751     -1.3203142e+08  1846.5699      1432.6803    
    644000   400.05154     -1.3203188e+08  1849.1927      1432.6945    
    645000   400.00761     -1.320316e+08   1853.2196      1432.7088    
    646000   399.93319     -1.3203128e+08  1849.8048      1432.723     
    647000   400.00602     -1.3203169e+08  1849.8809      1432.7373    
    648000   400.06567     -1.3203189e+08  1843.8888      1432.7515    
    649000   399.94231     -1.3203128e+08  1839.4106      1432.7657    
    650000   400.09623     -1.3203188e+08  1843.4577      1432.78      
    651000   399.98217     -1.3203154e+08  1827.8115      1432.7942    
    652000   399.94009     -1.3203186e+08  1822.9835      1432.8085    
    653000   399.9219      -1.3203133e+08  1817.9333      1432.8227    
    654000   399.94736     -1.3203167e+08  1822.4438      1432.837     
    655000   399.97        -1.3203118e+08  1818.0147      1432.8512    
    656000   399.9639      -1.3203114e+08  1811.423       1432.8654    
    657000   400.0433      -1.3203146e+08  1820.3232      1432.8797    
    658000   399.94632     -1.3203172e+08  1812.6647      1432.8939    
    659000   399.98305     -1.3203222e+08  1805.1423      1432.9082    
    660000   400.01906     -1.320314e+08   1805.511       1432.9224    
    661000   400.03337     -1.3203158e+08  1810.3001      1432.9367    
    662000   399.93152     -1.3203141e+08  1800.1017      1432.9509    
    663000   399.9646      -1.3203126e+08  1792.5014      1432.9651    
    664000   399.90998     -1.3203115e+08  1789.2987      1432.9794    
    665000   399.96108     -1.3203118e+08  1793.8486      1432.9936    
    666000   400.03625     -1.3203146e+08  1802.1358      1433.0079    
    667000   399.98275     -1.3203108e+08  1798.6975      1433.0221    
    668000   400.06223     -1.3203133e+08  1792.4595      1433.0363    
    669000   399.98285     -1.3203121e+08  1785.1547      1433.0506    
    670000   400.00089     -1.3203093e+08  1785.1146      1433.0648    
    671000   399.95905     -1.3203117e+08  1776.4259      1433.0791    
    672000   399.9264      -1.3203085e+08  1787.1812      1433.0933    
    673000   399.98592     -1.32031e+08    1774.3286      1433.1076    
    674000   400.04394     -1.3203121e+08  1772.7086      1433.1218    
    675000   400.07607     -1.3203112e+08  1772.7627      1433.136     
    676000   400.06207     -1.3203094e+08  1773.6416      1433.1503    
    677000   400.0438      -1.32031e+08    1766.2245      1433.1645    
    678000   400.0438      -1.3203115e+08  1761.062       1433.1788    
    679000   400.0839      -1.3203098e+08  1756.8526      1433.193     
    680000   399.96084     -1.3203078e+08  1761.3128      1433.2073    
    681000   400.10639     -1.3203084e+08  1758.4856      1433.2215    
    682000   399.99466     -1.3203041e+08  1758.1873      1433.2357    
    683000   399.97753     -1.3203063e+08  1741.7047      1433.25      
    684000   400.04868     -1.3203103e+08  1745.491       1433.2642    
    685000   399.9701      -1.3203074e+08  1740.0948      1433.2785    
    686000   399.94404     -1.3203043e+08  1749.7806      1433.2927    
    687000   399.95223     -1.3203077e+08  1731.6496      1433.307     
    688000   399.84977     -1.3203076e+08  1734.7012      1433.3212    
    689000   399.97771     -1.3203075e+08  1733.1386      1433.3354    
    690000   400.0039      -1.3203069e+08  1731.3219      1433.3497    
    691000   399.95416     -1.320307e+08   1725.7435      1433.3639    
    692000   400.0144      -1.3203076e+08  1716.4924      1433.3782    
    693000   400.01401     -1.3203007e+08  1724.3142      1433.3924    
    694000   400.00294     -1.3203023e+08  1716.8679      1433.4067    
    695000   400.08385     -1.3203047e+08  1712.0225      1433.4209    
    696000   400.04607     -1.3203001e+08  1699.466       1433.4351    
    697000   400.0635      -1.3203068e+08  1701.7068      1433.4494    
    698000   400.03197     -1.3203029e+08  1708.9211      1433.4636    
    699000   400.01054     -1.3203011e+08  1707.3405      1433.4779    
    700000   399.99084     -1.3202952e+08  1707.7991      1433.4921    
    701000   399.99935     -1.3203003e+08  1694.3663      1433.5063    
    702000   400.0405      -1.3203001e+08  1687.4125      1433.5206    
    703000   400.0367      -1.3203035e+08  1688.6409      1433.5348    
    704000   399.94698     -1.3203001e+08  1694.3712      1433.5491    
    705000   399.97264     -1.3203052e+08  1680.1771      1433.5633    
    706000   399.96271     -1.3203067e+08  1679.7375      1433.5776    
    707000   399.93128     -1.3203054e+08  1692.2137      1433.5918    
    708000   400.04369     -1.3203083e+08  1680.4375      1433.606     
    709000   400.06915     -1.3203091e+08  1674.4389      1433.6203    
    710000   399.99566     -1.3203013e+08  1668.5484      1433.6345    
    711000   400.01589     -1.3202958e+08  1669.4607      1433.6488    
    712000   400.08401     -1.320299e+08   1674.5823      1433.663     
    713000   399.99333     -1.3202985e+08  1663.1394      1433.6773    
    714000   399.98911     -1.3203005e+08  1670.0413      1433.6915    
    715000   399.95014     -1.3203045e+08  1662.4523      1433.7057    
    716000   399.98892     -1.3203034e+08  1672.0334      1433.72      
    717000   400.03601     -1.3203026e+08  1664.8372      1433.7342    
    718000   399.98366     -1.3202959e+08  1663.6026      1433.7485    
    719000   400.03938     -1.320299e+08   1649.8686      1433.7627    
    720000   400.00986     -1.3202972e+08  1645.653       1433.777     
    721000   399.98976     -1.3203019e+08  1644.4397      1433.7912    
    722000   399.99639     -1.3203e+08     1643.7104      1433.8054    
    723000   399.91196     -1.3202997e+08  1641.9633      1433.8197    
    724000   399.95017     -1.3203034e+08  1643.3659      1433.8339    
    725000   399.97147     -1.3203021e+08  1637.9729      1433.8482    
    726000   399.93661     -1.3202977e+08  1639.513       1433.8624    
    727000   399.90941     -1.3202996e+08  1636.4059      1433.8766    
    728000   399.99148     -1.3203036e+08  1634.8893      1433.8909    
    729000   399.91971     -1.3203027e+08  1628.8167      1433.9051    
    730000   399.93443     -1.3202998e+08  1627.6946      1433.9194    
    731000   399.91598     -1.320301e+08   1620.3618      1433.9336    
    732000   399.95475     -1.3202976e+08  1620.3331      1433.9479    
    733000   400.0667      -1.3202977e+08  1616.2572      1433.9621    
    734000   400.05904     -1.3202977e+08  1614.5309      1433.9763    
    735000   399.99036     -1.3202974e+08  1602.1468      1433.9906    
    736000   399.96801     -1.3202955e+08  1601.1845      1434.0048    
    737000   399.96817     -1.3202965e+08  1595.318       1434.0191    
    738000   400.02339     -1.3202957e+08  1604.3583      1434.0333    
    739000   400.03331     -1.3202949e+08  1609.3429      1434.0476    
    740000   400.0988      -1.320299e+08   1599.7541      1434.0618    
    741000   400.02051     -1.3202969e+08  1586.4296      1434.076     
    742000   399.98336     -1.3202963e+08  1572.6101      1434.0903    
    743000   399.90371     -1.3202923e+08  1577.1958      1434.1045    
    744000   400.01216     -1.3202948e+08  1582.8093      1434.1188    
    745000   400.05028     -1.3202953e+08  1582.8611      1434.133     
    746000   399.98599     -1.3202944e+08  1573.5745      1434.1473    
    747000   399.93751     -1.320293e+08   1574.6551      1434.1615    
    748000   399.97857     -1.3202929e+08  1570.5405      1434.1757    
    749000   399.98358     -1.320294e+08   1565.7575      1434.19      
    750000   399.99648     -1.3202944e+08  1565.1812      1434.2042    
    751000   399.99052     -1.3202916e+08  1567.4536      1434.2185    
    752000   400.01118     -1.3202902e+08  1557.7332      1434.2327    
    753000   400.02054     -1.3202898e+08  1554.1594      1434.2469    
    754000   400.04126     -1.3202916e+08  1559.9257      1434.2612    
    755000   399.99923     -1.3202869e+08  1555.9429      1434.2754    
    756000   399.99707     -1.3202896e+08  1551.4001      1434.2897    
    757000   400.03621     -1.3202874e+08  1541.2185      1434.3039    
    758000   400.03514     -1.3202916e+08  1535.6046      1434.3182    
    759000   399.99974     -1.320291e+08   1537.8562      1434.3324    
    760000   400.05303     -1.3202906e+08  1545.6186      1434.3466    
    761000   400.00264     -1.3202854e+08  1547.2152      1434.3609    
    762000   400.10048     -1.3202891e+08  1543.6011      1434.3751    
    763000   399.95419     -1.3202849e+08  1535.6434      1434.3894    
    764000   399.88171     -1.3202838e+08  1531.204       1434.4036    
    765000   400.02164     -1.320291e+08   1524.1714      1434.4179    
    766000   400.00804     -1.3202878e+08  1525.0073      1434.4321    
    767000   400.00962     -1.3202885e+08  1523.6013      1434.4463    
    768000   399.98972     -1.3202888e+08  1523.5134      1434.4606    
    769000   400.01727     -1.3202901e+08  1517.0786      1434.4748    
    770000   400.00091     -1.3202859e+08  1515.8239      1434.4891    
    771000   400.06731     -1.3202964e+08  1502.9408      1434.5033    
    772000   399.85856     -1.3202874e+08  1497.7372      1434.5176    
    773000   399.93357     -1.3202892e+08  1501.8038      1434.5318    
    774000   399.95472     -1.320284e+08   1511.2056      1434.546     
    775000   400.0975      -1.3202836e+08  1508.5718      1434.5603    
    776000   400.08052     -1.3202826e+08  1494.0607      1434.5745    
    777000   400.06418     -1.3202838e+08  1488.334       1434.5888    
    778000   399.98228     -1.3202795e+08  1488.4285      1434.603     
    779000   399.99922     -1.3202814e+08  1497.7609      1434.6172    
    780000   400.01554     -1.320284e+08   1498.4435      1434.6315    
    781000   400.0286      -1.3202879e+08  1494.4049      1434.6457    
    782000   400.03002     -1.3202835e+08  1475.4574      1434.66      
    783000   399.89727     -1.3202804e+08  1472.8245      1434.6742    
    784000   399.90528     -1.3202831e+08  1477.4151      1434.6885    
    785000   399.98294     -1.3202826e+08  1481.5194      1434.7027    
    786000   400.06275     -1.3202884e+08  1478.5397      1434.7169    
    787000   400.05519     -1.3202854e+08  1473.6542      1434.7312    
    788000   399.99985     -1.3202833e+08  1455.5979      1434.7454    
    789000   399.9685      -1.3202825e+08  1452.8305      1434.7597    
    790000   399.93583     -1.3202835e+08  1455.6483      1434.7739    
    791000   400.01269     -1.3202851e+08  1461.288       1434.7882    
    792000   400.0954      -1.3202851e+08  1460.8955      1434.8024    
    793000   399.9892      -1.3202805e+08  1458.7986      1434.8166    
    794000   400.02852     -1.3202813e+08  1454.534       1434.8309    
    795000   400.03238     -1.3202757e+08  1460.1057      1434.8451    
    796000   400.07704     -1.3202821e+08  1456.5317      1434.8594    
    797000   399.9898      -1.320278e+08   1449.0008      1434.8736    
    798000   399.95473     -1.3202804e+08  1438.4117      1434.8879    
    799000   399.9761      -1.3202803e+08  1431.8737      1434.9021    
    800000   399.98929     -1.3202776e+08  1442.8134      1434.9163    
    801000   399.93096     -1.3202834e+08  1433.9629      1434.9306    
    802000   399.97735     -1.3202844e+08  1427.4161      1434.9448    
    803000   399.99508     -1.3202813e+08  1430.5647      1434.9591    
    804000   399.99712     -1.3202755e+08  1424.5081      1434.9733    
    805000   399.93601     -1.320278e+08   1418.1316      1434.9876    
    806000   399.92824     -1.3202777e+08  1413.9821      1435.0018    
    807000   400.0119      -1.3202787e+08  1422.1465      1435.016     
    808000   399.98238     -1.3202778e+08  1414.6576      1435.0303    
    809000   399.92437     -1.3202756e+08  1411.0111      1435.0445    
    810000   400.02178     -1.3202771e+08  1403.656       1435.0588    
    811000   400.05227     -1.320277e+08   1407.1916      1435.073     
    812000   400.00734     -1.3202747e+08  1412.1267      1435.0872    
    813000   399.98605     -1.3202744e+08  1400.5902      1435.1015    
    814000   399.97964     -1.3202747e+08  1397.4858      1435.1157    
    815000   400.07575     -1.3202749e+08  1397.8813      1435.13      
    816000   400.03586     -1.3202757e+08  1401.002       1435.1442    
    817000   399.92606     -1.3202768e+08  1402.7542      1435.1585    
    818000   400.04182     -1.3202776e+08  1387.1669      1435.1727    
    819000   400.01134     -1.3202725e+08  1384.302       1435.1869    
    820000   399.95695     -1.3202687e+08  1375.7893      1435.2012    
    821000   399.95049     -1.3202714e+08  1379.8103      1435.2154    
    822000   399.99066     -1.3202758e+08  1374.9245      1435.2297    
    823000   399.98094     -1.320276e+08   1377.2949      1435.2439    
    824000   399.94727     -1.3202778e+08  1375.8782      1435.2582    
    825000   399.95984     -1.3202773e+08  1371.5212      1435.2724    
    826000   399.9353      -1.3202734e+08  1360.8685      1435.2866    
    827000   399.91317     -1.3202701e+08  1367.5195      1435.3009    
    828000   399.8969      -1.3202716e+08  1364.058       1435.3151    
    829000   399.97443     -1.3202728e+08  1362.8249      1435.3294    
    830000   400.00078     -1.3202686e+08  1361.4391      1435.3436    
    831000   400.02973     -1.3202662e+08  1364.661       1435.3579    
    832000   400.01039     -1.3202725e+08  1360.4333      1435.3721    
    833000   399.93353     -1.3202703e+08  1356.7419      1435.3863    
    834000   399.90824     -1.3202666e+08  1359.7668      1435.4006    
    835000   400.01583     -1.3202737e+08  1350.6827      1435.4148    
    836000   400.01845     -1.3202725e+08  1344.0534      1435.4291    
    837000   399.98048     -1.3202685e+08  1343.3272      1435.4433    
    838000   400.05999     -1.320273e+08   1340.6112      1435.4575    
    839000   399.98334     -1.3202687e+08  1330.8954      1435.4718    
    840000   399.88075     -1.3202662e+08  1337.0743      1435.486     
    841000   399.92658     -1.3202646e+08  1325.0271      1435.5003    
    842000   400.01323     -1.3202641e+08  1328.5882      1435.5145    
    843000   400.05514     -1.3202645e+08  1327.0161      1435.5288    
    844000   399.98833     -1.320264e+08   1326.285       1435.543     
    845000   400.04227     -1.320266e+08   1317.1964      1435.5572    
    846000   399.99782     -1.3202647e+08  1325.3482      1435.5715    
    847000   399.9561      -1.3202647e+08  1323.4986      1435.5857    
    848000   400.05321     -1.3202664e+08  1311.1269      1435.6       
    849000   399.99002     -1.320264e+08   1301.5479      1435.6142    
    850000   399.9246      -1.3202622e+08  1299.8098      1435.6285    
    851000   399.94711     -1.3202652e+08  1304.2598      1435.6427    
    852000   399.97316     -1.3202674e+08  1302.9327      1435.6569    
    853000   399.88953     -1.320264e+08   1308.8884      1435.6712    
    854000   399.98369     -1.3202671e+08  1297.7635      1435.6854    
    855000   399.99855     -1.3202678e+08  1293.0875      1435.6997    
    856000   399.94163     -1.3202672e+08  1288.5978      1435.7139    
    857000   399.96151     -1.3202675e+08  1282.233       1435.7282    
    858000   399.92522     -1.3202644e+08  1283.0895      1435.7424    
    859000   399.89551     -1.3202672e+08  1282.7809      1435.7566    
    860000   399.92916     -1.3202679e+08  1278.6769      1435.7709    
    861000   399.90588     -1.3202631e+08  1277.8434      1435.7851    
    862000   400.02325     -1.320266e+08   1275.2393      1435.7994    
    863000   399.97248     -1.3202605e+08  1271.6463      1435.8136    
    864000   399.96175     -1.3202609e+08  1260.7992      1435.8278    
    865000   399.98448     -1.3202616e+08  1257.5873      1435.8421    
    866000   399.93802     -1.3202578e+08  1264.9576      1435.8563    
    867000   400.01967     -1.3202552e+08  1269.8621      1435.8706    
    868000   400.00747     -1.3202615e+08  1255.0871      1435.8848    
    869000   399.97218     -1.3202612e+08  1248.0805      1435.8991    
    870000   399.97954     -1.3202616e+08  1239.6395      1435.9133    
    871000   399.9556      -1.3202586e+08  1255.5056      1435.9275    
    872000   400.09859     -1.3202631e+08  1255.3656      1435.9418    
    873000   399.96641     -1.3202562e+08  1248.9701      1435.956     
    874000   400.00301     -1.3202607e+08  1235.785       1435.9703    
    875000   399.93815     -1.3202553e+08  1240.6289      1435.9845    
    876000   399.97441     -1.3202552e+08  1234.4276      1435.9988    
    877000   400.01293     -1.3202541e+08  1230.6608      1436.013     
    878000   400.12204     -1.3202564e+08  1240.0577      1436.0272    
    879000   400.10982     -1.3202563e+08  1235.686       1436.0415    
    880000   400.05618     -1.3202584e+08  1225.9066      1436.0557    
    881000   399.94111     -1.320253e+08   1226.6207      1436.07      
    882000   400.03175     -1.3202549e+08  1224.9885      1436.0842    
    883000   400.01855     -1.3202553e+08  1227.3276      1436.0985    
    884000   400.05676     -1.3202553e+08  1222.9712      1436.1127    
    885000   400.05105     -1.3202548e+08  1213.6499      1436.1269    
    886000   399.94729     -1.3202551e+08  1207.9061      1436.1412    
    887000   399.94739     -1.3202519e+08  1204.1215      1436.1554    
    888000   400.07129     -1.3202552e+08  1212.2657      1436.1697    
    889000   400.00793     -1.3202549e+08  1204.9712      1436.1839    
    890000   400.01541     -1.3202526e+08  1210.9585      1436.1982    
    891000   400.07712     -1.3202547e+08  1208.2974      1436.2124    
    892000   399.998       -1.3202516e+08  1201.1587      1436.2266    
    893000   400.06343     -1.3202516e+08  1189.8528      1436.2409    
    894000   399.95575     -1.32025e+08    1177.2187      1436.2551    
    895000   400.00764     -1.3202513e+08  1179.8813      1436.2694    
    896000   399.94596     -1.3202507e+08  1185.8864      1436.2836    
    897000   399.9035      -1.3202535e+08  1188.087       1436.2978    
    898000   400.00682     -1.3202539e+08  1196.1071      1436.3121    
    899000   399.93456     -1.3202498e+08  1174.681       1436.3263    
    900000   399.98129     -1.3202493e+08  1163.9473      1436.3406    
    901000   400.0046      -1.3202488e+08  1163.6394      1436.3548    
    902000   399.96402     -1.3202522e+08  1163.4172      1436.3691    
    903000   399.97724     -1.3202504e+08  1172.5157      1436.3833    
    904000   400.03057     -1.3202466e+08  1184.3663      1436.3975    
    905000   399.97345     -1.3202502e+08  1181.0913      1436.4118    
    906000   399.99019     -1.320247e+08   1172.5982      1436.426     
    907000   400.00037     -1.3202503e+08  1153.249       1436.4403    
    908000   400.00042     -1.3202495e+08  1152.455       1436.4545    
    909000   399.99397     -1.3202486e+08  1153.0248      1436.4688    
    910000   400.03129     -1.32025e+08    1156.6316      1436.483     
    911000   399.98767     -1.320249e+08   1147.6906      1436.4972    
    912000   399.93257     -1.3202493e+08  1142.0854      1436.5115    
    913000   399.96597     -1.3202478e+08  1136.0833      1436.5257    
    914000   399.97738     -1.3202481e+08  1131.7374      1436.54      
    915000   400.04205     -1.3202463e+08  1136.1711      1436.5542    
    916000   399.98938     -1.320245e+08   1123.8862      1436.5685    
    917000   400.02        -1.3202449e+08  1135.9189      1436.5827    
    918000   399.95443     -1.3202454e+08  1127.0475      1436.5969    
    919000   400.03121     -1.3202465e+08  1139.0044      1436.6112    
    920000   399.97698     -1.3202409e+08  1128.9488      1436.6254    
    921000   400.04506     -1.320247e+08   1132.6552      1436.6397    
    922000   400.05025     -1.3202477e+08  1118.8967      1436.6539    
    923000   400.00546     -1.3202458e+08  1130.1944      1436.6681    
    924000   400.01988     -1.3202443e+08  1114.7185      1436.6824    
    925000   400.03839     -1.3202437e+08  1109.6055      1436.6966    
    926000   400.06246     -1.3202437e+08  1106.2712      1436.7109    
    927000   400.0216      -1.320242e+08   1115.6355      1436.7251    
    928000   399.98169     -1.3202424e+08  1117.8426      1436.7394    
    929000   400.01753     -1.3202437e+08  1109.9719      1436.7536    
    930000   399.96001     -1.320241e+08   1095.6571      1436.7678    
    931000   400.03115     -1.3202416e+08  1086.5535      1436.7821    
    932000   399.98263     -1.3202385e+08  1085.8686      1436.7963    
    933000   400.01703     -1.320239e+08   1082.729       1436.8106    
    934000   399.98863     -1.3202365e+08  1094.8967      1436.8248    
    935000   399.9275      -1.3202348e+08  1079.2836      1436.8391    
    936000   399.9938      -1.3202393e+08  1072.6951      1436.8533    
    937000   399.97702     -1.320235e+08   1063.0483      1436.8675    
    938000   400.05364     -1.3202382e+08  1071.5061      1436.8818    
    939000   400.09822     -1.3202366e+08  1071.158       1436.896     
    940000   399.97132     -1.3202343e+08  1074.444       1436.9103    
    941000   400.08959     -1.3202402e+08  1059.5861      1436.9245    
    942000   400.00605     -1.3202328e+08  1055.7437      1436.9388    
    943000   399.98168     -1.3202385e+08  1053.4925      1436.953     
    944000   399.88174     -1.3202338e+08  1055.3491      1436.9672    
    945000   400.01253     -1.3202388e+08  1058.116       1436.9815    
    946000   399.96731     -1.3202352e+08  1048.5843      1436.9957    
    947000   400.00256     -1.3202365e+08  1062.2202      1437.01      
    948000   399.95949     -1.3202342e+08  1050.6078      1437.0242    
    949000   399.89348     -1.3202355e+08  1053.5125      1437.0384    
    950000   399.9564      -1.3202372e+08  1047.1854      1437.0527    
    951000   399.90365     -1.3202338e+08  1051.324       1437.0669    
    952000   399.95344     -1.3202334e+08  1043.1591      1437.0812    
    953000   399.95659     -1.3202293e+08  1038.8556      1437.0954    
    954000   399.95457     -1.3202318e+08  1029.6791      1437.1097    
    955000   399.99517     -1.320231e+08   1031.7563      1437.1239    
    956000   400.04174     -1.3202397e+08  1032.4416      1437.1381    
    957000   400.0573      -1.3202349e+08  1031.1647      1437.1524    
    958000   399.9931      -1.3202301e+08  1026.5738      1437.1666    
    959000   400.01884     -1.3202304e+08  1015.7699      1437.1809    
    960000   400.11089     -1.3202288e+08  1001.7127      1437.1951    
    961000   400.00679     -1.3202268e+08  1000.8481      1437.2094    
    962000   400.10727     -1.320224e+08   1012.6729      1437.2236    
    963000   400.09908     -1.3202294e+08  1012.4413      1437.2378    
    964000   400.06812     -1.3202311e+08  1018.0409      1437.2521    
    965000   400.07682     -1.3202284e+08  1018.5917      1437.2663    
    966000   400.01069     -1.3202283e+08  1010.9086      1437.2806    
    967000   400.04025     -1.3202337e+08  999.68866      1437.2948    
    968000   399.96593     -1.3202363e+08  1002.9448      1437.3091    
    969000   399.90383     -1.3202344e+08  1005.3426      1437.3233    
    970000   399.89033     -1.3202305e+08  1006.2445      1437.3375    
    971000   399.97393     -1.3202342e+08  994.96186      1437.3518    
    972000   399.95399     -1.3202274e+08  992.02867      1437.366     
    973000   399.9869      -1.320228e+08   978.45752      1437.3803    
    974000   400.0115      -1.3202245e+08  975.00957      1437.3945    
    975000   400.04617     -1.3202262e+08  977.56704      1437.4087    
    976000   400.12888     -1.3202278e+08  963.74812      1437.423     
    977000   400.07316     -1.3202233e+08  967.01776      1437.4372    
    978000   399.96405     -1.3202193e+08  960.25045      1437.4515    
    979000   399.98384     -1.3202204e+08  954.92194      1437.4657    
    980000   400.00849     -1.3202223e+08  968.38796      1437.48      
    981000   399.96286     -1.3202196e+08  974.70521      1437.4942    
    982000   400.06972     -1.3202241e+08  971.62442      1437.5084    
    983000   400.02183     -1.3202242e+08  956.54078      1437.5227    
    984000   400.06368     -1.3202253e+08  952.77251      1437.5369    
    985000   400.00174     -1.3202236e+08  959.27078      1437.5512    
    986000   399.95751     -1.3202215e+08  945.18573      1437.5654    
    987000   400.00758     -1.32022e+08    945.25993      1437.5797    
    988000   400.06728     -1.3202244e+08  939.55079      1437.5939    
    989000   400.01742     -1.3202209e+08  946.30214      1437.6081    
    990000   400.07665     -1.3202212e+08  952.85138      1437.6224    
    991000   400.13505     -1.3202174e+08  949.88402      1437.6366    
    992000   400.01513     -1.3202148e+08  936.61847      1437.6509    
    993000   400.0135      -1.3202174e+08  936.50618      1437.6651    
    994000   399.98307     -1.3202175e+08  936.6321       1437.6794    
    995000   400.0743      -1.3202174e+08  941.47222      1437.6936    
    996000   400.10376     -1.320221e+08   936.58387      1437.7078    
    997000   400.07943     -1.3202226e+08  927.00126      1437.7221    
    998000   400.06744     -1.3202221e+08  922.57788      1437.7363    
    999000   400.05823     -1.3202153e+08  917.99083      1437.7506    
   1000000   400.07752     -1.3202125e+08  918.51794      1437.7648    
   1001000   400.16355     -1.3202166e+08  916.25346      1437.7791    
   1002000   400.07054     -1.3202161e+08  914.56856      1437.7933    
   1003000   400.04815     -1.3202155e+08  906.77432      1437.8075    
   1004000   400.05507     -1.3202124e+08  901.80549      1437.8218    
   1005000   400.00631     -1.3202106e+08  895.87715      1437.836     
   1006000   400.00401     -1.3202143e+08  887.24212      1437.8503    
   1007000   400.06931     -1.320215e+08   891.67832      1437.8645    
   1008000   400.11927     -1.320215e+08   903.64498      1437.8787    
   1009000   400.10212     -1.3202126e+08  901.72538      1437.893     
   1010000   399.97422     -1.3202118e+08  896.85036      1437.9072    
   1011000   399.98258     -1.3202133e+08  887.42983      1437.9215    
   1012000   399.97914     -1.3202112e+08  881.80027      1437.9357    
   1013000   400.01608     -1.3202139e+08  886.43184      1437.95      
   1014000   399.96975     -1.3202116e+08  881.60066      1437.9642    
   1015000   400.01437     -1.3202137e+08  876.62924      1437.9784    
   1016000   400.04354     -1.3202114e+08  872.61447      1437.9927    
   1017000   400.02755     -1.320211e+08   868.55153      1438.0069    
   1018000   400.03112     -1.3202116e+08  866.02137      1438.0212    
   1019000   400.05849     -1.3202118e+08  865.29065      1438.0354    
   1020000   400.04836     -1.3202144e+08  868.36085      1438.0497    
   1021000   400.02109     -1.3202092e+08  869.4052       1438.0639    
   1022000   399.98195     -1.3202089e+08  865.21148      1438.0781    
   1023000   399.98436     -1.3202133e+08  852.75414      1438.0924    
   1024000   399.95479     -1.3202114e+08  853.50642      1438.1066    
   1025000   399.98258     -1.3202125e+08  857.94725      1438.1209    
   1026000   400.04606     -1.3202096e+08  853.07171      1438.1351    
   1027000   399.99428     -1.3202129e+08  844.34079      1438.1494    
   1028000   399.91957     -1.3202098e+08  839.45558      1438.1636    
   1029000   399.9528      -1.3202099e+08  839.71301      1438.1778    
   1030000   400.02289     -1.3202095e+08  838.53362      1438.1921    
   1031000   399.99122     -1.3202055e+08  836.04034      1438.2063    
   1032000   400.003       -1.3202077e+08  833.61429      1438.2206    
   1033000   400.02038     -1.3202081e+08  829.95867      1438.2348    
   1034000   399.99023     -1.3202062e+08  828.00578      1438.249     
   1035000   399.94232     -1.3202044e+08  819.22225      1438.2633    
   1036000   399.99631     -1.3202034e+08  822.64231      1438.2775    
[...]
   3844000   400.06859     -1.3181492e+08 -5073.5048      1478.27      
   3845000   400.01235     -1.3181431e+08 -5064.3729      1478.2843    
   3846000   400.10199     -1.3181499e+08 -5065.8366      1478.2985    
   3847000   400.01008     -1.3181475e+08 -5064.3652      1478.3128    
   3848000   399.87334     -1.3181416e+08 -5070.8279      1478.327     
   3849000   400.02758     -1.3181459e+08 -5080.721       1478.3413    
   3850000   399.98385     -1.3181436e+08 -5085.1758      1478.3555    
   3851000   399.99106     -1.3181413e+08 -5078.836       1478.3697    
   3852000   399.96628     -1.3181407e+08 -5076.4576      1478.384     
   3853000   400.03849     -1.3181398e+08 -5071.2756      1478.3982    
   3854000   399.96448     -1.3181363e+08 -5079.3596      1478.4125    
   3855000   399.9869      -1.3181376e+08 -5083.0177      1478.4267    
   3856000   399.95849     -1.3181311e+08 -5089.0592      1478.4409    
   3857000   399.96188     -1.3181315e+08 -5081.9793      1478.4552    
   3858000   399.95476     -1.3181332e+08 -5080.0768      1478.4694    
   3859000   400.02604     -1.3181362e+08 -5083.7475      1478.4837    
   3860000   399.98589     -1.318129e+08  -5081.2278      1478.4979    
   3861000   399.96742     -1.3181266e+08 -5088.4725      1478.5122    
   3862000   400.00478     -1.3181321e+08 -5093.4285      1478.5264    
   3863000   399.98036     -1.3181304e+08 -5095.8218      1478.5406    
   3864000   399.90226     -1.3181283e+08 -5095.9792      1478.5549    
   3865000   399.98376     -1.3181325e+08 -5104.9221      1478.5691    
   3866000   399.90453     -1.3181255e+08 -5107.6538      1478.5834    
   3867000   400.03038     -1.3181228e+08 -5107.6277      1478.5976    
   3868000   400.0765      -1.3181259e+08 -5106.0682      1478.6119    
   3869000   399.98717     -1.3181251e+08 -5103.1322      1478.6261    
   3870000   399.97576     -1.3181234e+08 -5104.3522      1478.6403    
   3871000   399.95409     -1.3181258e+08 -5110.2571      1478.6546    
   3872000   399.99201     -1.3181209e+08 -5108.4027      1478.6688    
   3873000   399.92203     -1.3181169e+08 -5107.1127      1478.6831    
   3874000   399.94059     -1.3181183e+08 -5103.1185      1478.6973    
   3875000   399.89826     -1.3181137e+08 -5116.3537      1478.7116    
   3876000   399.97607     -1.3181151e+08 -5133.2491      1478.7258    
   3877000   399.99783     -1.3181169e+08 -5136.7462      1478.74      
   3878000   400.00766     -1.3181171e+08 -5121.8976      1478.7543    
   3879000   399.96176     -1.3181099e+08 -5116.6928      1478.7685    
   3880000   399.98771     -1.31811e+08   -5111.7015      1478.7828    
   3881000   399.99429     -1.31811e+08   -5123.3523      1478.797     
   3882000   400.03498     -1.3181049e+08 -5136.6523      1478.8112    
   3883000   400.05048     -1.3180997e+08 -5142.7613      1478.8255    
   3884000   400.12333     -1.3180995e+08 -5142.3773      1478.8397    
   3885000   400.03643     -1.3180975e+08 -5129.8906      1478.854     
   3886000   400.06053     -1.3181025e+08 -5131.9764      1478.8682    
   3887000   400.02629     -1.3180984e+08 -5135.3507      1478.8825    
   3888000   400.04717     -1.3180948e+08 -5142.5708      1478.8967    
   3889000   400.05308     -1.3180983e+08 -5143.0218      1478.9109    
   3890000   399.98006     -1.3180993e+08 -5143.4917      1478.9252    
   3891000   399.93782     -1.3180952e+08 -5140.3611      1478.9394    
   3892000   400.01827     -1.3180985e+08 -5142.3411      1478.9537    
   3893000   400.02283     -1.3180976e+08 -5138.0311      1478.9679    
   3894000   399.96312     -1.3180916e+08 -5146.1839      1478.9822    
   3895000   399.99828     -1.3180896e+08 -5143.7371      1478.9964    
   3896000   400.08591     -1.3180923e+08 -5149.4046      1479.0106    
   3897000   400.00735     -1.3180895e+08 -5146.6978      1479.0249    
   3898000   400.05261     -1.3180889e+08 -5155.8761      1479.0391    
   3899000   400.04293     -1.3180881e+08 -5155.901       1479.0534    
   3900000   400.03467     -1.318084e+08  -5162.3846      1479.0676    
   3901000   400.01933     -1.318083e+08  -5158.6171      1479.0819    
   3902000   399.94345     -1.3180867e+08 -5167.9925      1479.0961    
   3903000   400.02527     -1.3180854e+08 -5150.9713      1479.1103    
   3904000   400.02564     -1.3180842e+08 -5156.7814      1479.1246    
   3905000   399.90522     -1.3180785e+08 -5153.5561      1479.1388    
   3906000   400.04367     -1.3180813e+08 -5163.5949      1479.1531    
   3907000   399.9851      -1.3180777e+08 -5162.383       1479.1673    
   3908000   400.03722     -1.3180816e+08 -5170.4332      1479.1815    
   3909000   399.99576     -1.3180765e+08 -5174.3558      1479.1958    
   3910000   400.06735     -1.3180769e+08 -5182.6188      1479.21      
   3911000   399.93598     -1.318075e+08  -5174.1664      1479.2243    
   3912000   399.91583     -1.3180729e+08 -5173.146       1479.2385    
   3913000   400.01096     -1.3180748e+08 -5167.8251      1479.2528    
   3914000   399.99628     -1.3180762e+08 -5177.001       1479.267     
   3915000   399.97074     -1.3180741e+08 -5185.0754      1479.2812    
   3916000   399.91612     -1.3180715e+08 -5181.3399      1479.2955    
   3917000   399.95672     -1.3180667e+08 -5180.5403      1479.3097    
   3918000   400.03635     -1.3180693e+08 -5173.4856      1479.324     
   3919000   400.06237     -1.3180716e+08 -5180.0029      1479.3382    
   3920000   399.99291     -1.3180668e+08 -5187.5938      1479.3525    
   3921000   399.85972     -1.3180596e+08 -5207.1938      1479.3667    
   3922000   400.07041     -1.3180682e+08 -5197.8489      1479.3809    
   3923000   399.90986     -1.318064e+08  -5194.0839      1479.3952    
   3924000   399.90288     -1.3180638e+08 -5187.8453      1479.4094    
   3925000   400.01173     -1.3180633e+08 -5185.8215      1479.4237    
   3926000   399.97402     -1.3180595e+08 -5183.8675      1479.4379    
   3927000   399.98181     -1.3180637e+08 -5192.9735      1479.4522    
   3928000   399.93087     -1.3180598e+08 -5201.2528      1479.4664    
   3929000   399.95298     -1.3180578e+08 -5203.9083      1479.4806    
   3930000   399.98948     -1.3180608e+08 -5213.9406      1479.4949    
   3931000   399.87882     -1.3180562e+08 -5206.6201      1479.5091    
   3932000   399.93222     -1.3180603e+08 -5199.5153      1479.5234    
   3933000   399.90793     -1.3180546e+08 -5201.2422      1479.5376    
   3934000   399.9796      -1.3180501e+08 -5213.6745      1479.5519    
   3935000   399.93522     -1.3180505e+08 -5219.3215      1479.5661    
   3936000   400.01016     -1.3180538e+08 -5217.4344      1479.5803    
   3937000   400.11488     -1.318053e+08  -5220.012       1479.5946    
   3938000   399.98952     -1.3180474e+08 -5215.3419      1479.6088    
   3939000   400.03539     -1.3180413e+08 -5220.2961      1479.6231    
   3940000   400.0436      -1.3180453e+08 -5218.3578      1479.6373    
   3941000   400.03739     -1.3180462e+08 -5224.308       1479.6515    
   3942000   400.00866     -1.3180427e+08 -5218.0581      1479.6658    
   3943000   399.98808     -1.3180419e+08 -5216.9691      1479.68      
   3944000   400.04899     -1.3180443e+08 -5217.2055      1479.6943    
   3945000   399.95512     -1.3180398e+08 -5229.0825      1479.7085    
   3946000   399.96611     -1.3180392e+08 -5225.9803      1479.7228    
   3947000   399.93305     -1.3180366e+08 -5231.7113      1479.737     
   3948000   399.98327     -1.3180363e+08 -5225.6685      1479.7512    
   3949000   399.94012     -1.3180343e+08 -5230.015       1479.7655    
   3950000   399.99404     -1.3180387e+08 -5241.0837      1479.7797    
   3951000   400.02291     -1.3180343e+08 -5242.8089      1479.794     
   3952000   400.0339      -1.3180387e+08 -5244.3373      1479.8082    
   3953000   400.04565     -1.3180325e+08 -5239.4211      1479.8225    
   3954000   400.02876     -1.318027e+08  -5236.4264      1479.8367    
   3955000   400.07192     -1.3180277e+08 -5235.6933      1479.8509    
   3956000   399.98752     -1.3180268e+08 -5247.2772      1479.8652    
   3957000   400.03953     -1.3180244e+08 -5255.6034      1479.8794    
   3958000   400.0185      -1.3180205e+08 -5260.7062      1479.8937    
   3959000   400.07533     -1.3180253e+08 -5257.8958      1479.9079    
   3960000   399.92084     -1.3180221e+08 -5252.2999      1479.9222    
   3961000   399.95486     -1.3180208e+08 -5247.6856      1479.9364    
   3962000   399.97178     -1.3180201e+08 -5256.64        1479.9506    
   3963000   399.98238     -1.3180143e+08 -5247.4238      1479.9649    
   3964000   400.03617     -1.3180131e+08 -5259.9094      1479.9791    
   3965000   400.08381     -1.3180148e+08 -5263.9518      1479.9934    
   3966000   400.00636     -1.3180129e+08 -5272.8204      1480.0076    
   3967000   400.02668     -1.3180114e+08 -5269.13        1480.0218    
   3968000   400.02848     -1.3180127e+08 -5262.677       1480.0361    
   3969000   400.0802      -1.3180126e+08 -5250.8028      1480.0503    
   3970000   400.04683     -1.3180128e+08 -5264.4286      1480.0646    
   3971000   400.07315     -1.3180083e+08 -5257.8718      1480.0788    
   3972000   400.02712     -1.318008e+08  -5274.9028      1480.0931    
   3973000   399.99099     -1.3180092e+08 -5275.6393      1480.1073    
   3974000   399.99565     -1.3180102e+08 -5273.6774      1480.1215    
   3975000   400.07406     -1.3180073e+08 -5271.0157      1480.1358    
   3976000   400.01413     -1.3180082e+08 -5270.8223      1480.15      
   3977000   399.97773     -1.3180078e+08 -5272.6386      1480.1643    
   3978000   400.00174     -1.3180061e+08 -5284.2345      1480.1785    
   3979000   399.97874     -1.3180019e+08 -5294.5471      1480.1928    
   3980000   399.95284     -1.3179998e+08 -5297.9578      1480.207     
   3981000   400.01732     -1.3180018e+08 -5292.3995      1480.2212    
   3982000   400.00068     -1.3180035e+08 -5283.6574      1480.2355    
   3983000   399.91087     -1.3179977e+08 -5274.3175      1480.2497    
   3984000   399.98733     -1.3180022e+08 -5280.5259      1480.264     
   3985000   400.02113     -1.3180015e+08 -5290.2373      1480.2782    
   3986000   399.88129     -1.3179937e+08 -5283.7387      1480.2925    
   3987000   400.02579     -1.3179959e+08 -5282.4324      1480.3067    
   3988000   399.96159     -1.3179978e+08 -5290.289       1480.3209    
   3989000   400.00364     -1.3179951e+08 -5283.3743      1480.3352    
   3990000   399.98682     -1.3179943e+08 -5288.9823      1480.3494    
   3991000   400.10017     -1.3179916e+08 -5292.0669      1480.3637    
   3992000   399.97991     -1.3179852e+08 -5306.0723      1480.3779    
   3993000   399.98689     -1.317985e+08  -5307.9159      1480.3921    
   3994000   400.03313     -1.3179839e+08 -5299.735       1480.4064    
   3995000   399.99365     -1.3179833e+08 -5296.1818      1480.4206    
   3996000   400.06919     -1.3179852e+08 -5305.9022      1480.4349    
   3997000   400.01106     -1.3179793e+08 -5313.3985      1480.4491    
   3998000   399.99897     -1.3179804e+08 -5318.9477      1480.4634    
   3999000   399.9545      -1.3179756e+08 -5306.2143      1480.4776    
   4000000   399.98313     -1.3179825e+08 -5305.146       1480.4918    
   4001000   399.98069     -1.317978e+08  -5315.7106      1480.5061    
   4002000   400.13151     -1.3179816e+08 -5315.8136      1480.5203    
   4003000   399.97781     -1.3179727e+08 -5317.8032      1480.5346    
   4004000   400.00176     -1.31797e+08   -5320.4449      1480.5488    
   4005000   400.07007     -1.317968e+08  -5323.6309      1480.5631    
   4006000   400.05305     -1.3179716e+08 -5331.6551      1480.5773    
   4007000   400.05427     -1.3179696e+08 -5322.1617      1480.5915    
   4008000   399.98882     -1.3179697e+08 -5339.5516      1480.6058    
   4009000   399.88839     -1.3179655e+08 -5330.6228      1480.62      
   4010000   399.95636     -1.3179694e+08 -5337.4468      1480.6343    
   4011000   399.92053     -1.3179703e+08 -5335.7706      1480.6485    
   4012000   399.94837     -1.3179676e+08 -5331.9193      1480.6628    
   4013000   400.02421     -1.317964e+08  -5317.9721      1480.677     
   4014000   400.04313     -1.3179634e+08 -5317.6961      1480.6912    
   4015000   400.01335     -1.3179629e+08 -5337.8984      1480.7055    
   4016000   399.95968     -1.3179619e+08 -5351.6765      1480.7197    
   4017000   399.92711     -1.3179584e+08 -5344.059       1480.734     
   4018000   400.07988     -1.3179614e+08 -5334.3135      1480.7482    
   4019000   400.08589     -1.3179577e+08 -5328.1317      1480.7625    
   4020000   400.12375     -1.3179558e+08 -5349.6703      1480.7767    
   4021000   400.01529     -1.3179532e+08 -5357.1677      1480.7909    
   4022000   400.04091     -1.3179508e+08 -5367.0933      1480.8052    
   4023000   400.02977     -1.3179533e+08 -5354.1581      1480.8194    
   4024000   400.09241     -1.317954e+08  -5354.2844      1480.8337    
   4025000   400.05005     -1.317953e+08  -5352.6852      1480.8479    
   4026000   400.01373     -1.3179501e+08 -5356.9009      1480.8621    
   4027000   400.03449     -1.3179514e+08 -5358.846       1480.8764    
   4028000   399.95383     -1.3179481e+08 -5354.1371      1480.8906    
   4029000   399.88637     -1.3179449e+08 -5352.3408      1480.9049    
   4030000   399.94615     -1.3179444e+08 -5352.066       1480.9191    
   4031000   400.04651     -1.3179453e+08 -5357.6369      1480.9334    
   4032000   399.99653     -1.3179412e+08 -5355.9539      1480.9476    
   4033000   400.00856     -1.3179401e+08 -5371.4429      1480.9618    
   4034000   400.0305      -1.317941e+08  -5368.3684      1480.9761    
   4035000   400.01461     -1.3179392e+08 -5369.5151      1480.9903    
   4036000   400.03812     -1.3179384e+08 -5372.8706      1481.0046    
   4037000   400.03321     -1.3179363e+08 -5374.6555      1481.0188    
   4038000   400.03659     -1.317935e+08  -5379.4647      1481.0331    
   4039000   400.02965     -1.3179351e+08 -5370.8792      1481.0473    
   4040000   400.06381     -1.317929e+08  -5363.0768      1481.0615    
   4041000   400.03252     -1.3179317e+08 -5371.5361      1481.0758    
   4042000   400.05745     -1.31793e+08   -5374.3197      1481.09      
   4043000   400.05987     -1.3179296e+08 -5382.4175      1481.1043    
   4044000   399.96843     -1.3179291e+08 -5384.6513      1481.1185    
   4045000   399.90534     -1.3179257e+08 -5387.2017      1481.1328    
   4046000   399.94839     -1.3179271e+08 -5381.4394      1481.147     
   4047000   399.89278     -1.3179245e+08 -5387.0874      1481.1612    
   4048000   399.92254     -1.3179242e+08 -5395.8122      1481.1755    
   4049000   400.02589     -1.3179235e+08 -5406.2042      1481.1897    
   4050000   400.03621     -1.3179235e+08 -5403.6695      1481.204     
   4051000   399.99587     -1.3179209e+08 -5402.5961      1481.2182    
   4052000   399.97571     -1.3179203e+08 -5392.0135      1481.2324    
   4053000   399.95471     -1.3179211e+08 -5397.2459      1481.2467    
   4054000   399.96606     -1.317921e+08  -5399.0251      1481.2609    
   4055000   400.00445     -1.317918e+08  -5405.282       1481.2752    
   4056000   400.01008     -1.3179167e+08 -5397.7917      1481.2894    
   4057000   399.98148     -1.3179118e+08 -5399.5529      1481.3037    
   4058000   399.95652     -1.3179117e+08 -5398.5767      1481.3179    
   4059000   400.03079     -1.3179114e+08 -5402.8625      1481.3321    
   4060000   399.97834     -1.3179112e+08 -5401.1062      1481.3464    
   4061000   399.99307     -1.3179127e+08 -5408.3931      1481.3606    
   4062000   399.97625     -1.3179101e+08 -5408.9792      1481.3749    
   4063000   399.96156     -1.3179086e+08 -5417.6974      1481.3891    
   4064000   399.88712     -1.3179061e+08 -5419.5087      1481.4034    
   4065000   399.86622     -1.3179067e+08 -5424.2097      1481.4176    
   4066000   399.92919     -1.3179057e+08 -5425.0903      1481.4318    
   4067000   399.92048     -1.3179051e+08 -5418.5648      1481.4461    
   4068000   399.93049     -1.3179016e+08 -5410.7394      1481.4603    
   4069000   399.98572     -1.317902e+08  -5420.863       1481.4746    
   4070000   400.02403     -1.3179008e+08 -5422.0414      1481.4888    
   4071000   400.04596     -1.3178999e+08 -5424.85        1481.5031    
   4072000   400.01412     -1.3178944e+08 -5424.301       1481.5173    
   4073000   400.07272     -1.3178928e+08 -5423.62        1481.5315    
   4074000   400.10733     -1.3178962e+08 -5433.2039      1481.5458    
   4075000   400.01427     -1.3178942e+08 -5428.5153      1481.56      
   4076000   400.01253     -1.3178931e+08 -5433.2591      1481.5743    
   4077000   399.92492     -1.3178923e+08 -5432.2949      1481.5885    
   4078000   399.9813      -1.3178926e+08 -5436.81        1481.6027    
   4079000   399.99381     -1.317893e+08  -5441.5009      1481.617     
   4080000   399.9693      -1.3178899e+08 -5448.4113      1481.6312    
   4081000   399.95142     -1.3178924e+08 -5448.4557      1481.6455    
   4082000   399.94854     -1.3178869e+08 -5443.0225      1481.6597    
   4083000   400.02759     -1.317886e+08  -5431.3196      1481.674     
   4084000   400.03447     -1.3178857e+08 -5431.4989      1481.6882    
   4085000   400.04911     -1.3178839e+08 -5444.0655      1481.7024    
   4086000   400.06269     -1.3178806e+08 -5454.593       1481.7167    
   4087000   399.908       -1.3178746e+08 -5447.585       1481.7309    
   4088000   400.09145     -1.3178786e+08 -5458.6543      1481.7452    
   4089000   400.05894     -1.3178765e+08 -5451.1601      1481.7594    
   4090000   400.0792      -1.3178771e+08 -5453.2129      1481.7737    
   4091000   400.02423     -1.3178759e+08 -5449.9516      1481.7879    
   4092000   399.97804     -1.3178721e+08 -5456.1403      1481.8021    
   4093000   400.08213     -1.317872e+08  -5457.3261      1481.8164    
   4094000   400.1276      -1.3178733e+08 -5460.7741      1481.8306    
   4095000   400.14967     -1.3178734e+08 -5459.9561      1481.8449    
   4096000   400.03261     -1.3178647e+08 -5454.957       1481.8591    
   4097000   400.02767     -1.3178669e+08 -5454.3788      1481.8734    
   4098000   400.06548     -1.3178689e+08 -5464.6156      1481.8876    
   4099000   400.10242     -1.3178681e+08 -5462.3595      1481.9018    
   4100000   400.06518     -1.3178664e+08 -5456.8181      1481.9161    
   4101000   400.05293     -1.3178642e+08 -5457.7183      1481.9303    
   4102000   400.06667     -1.3178618e+08 -5455.8247      1481.9446    
   4103000   399.98642     -1.3178599e+08 -5463.2133      1481.9588    
   4104000   400.04269     -1.3178613e+08 -5468.1835      1481.973     
   4105000   399.92619     -1.317856e+08  -5478.4397      1481.9873    
   4106000   400.04969     -1.3178609e+08 -5482.6499      1482.0015    
   4107000   400.0002      -1.3178588e+08 -5475.8113      1482.0158    
   4108000   399.99484     -1.3178555e+08 -5467.4475      1482.03      
   4109000   400.03297     -1.317855e+08  -5472.9176      1482.0443    
   4110000   400.07012     -1.317856e+08  -5480.239       1482.0585    
   4111000   399.94995     -1.3178515e+08 -5501.0566      1482.0727    
   4112000   400.04065     -1.317854e+08  -5488.5321      1482.087     
   4113000   400.10748     -1.3178512e+08 -5474.201       1482.1012    
   4114000   400.0412      -1.3178531e+08 -5477.0178      1482.1155    
   4115000   399.86693     -1.317848e+08  -5486.2116      1482.1297    
   4116000   399.93427     -1.3178516e+08 -5501.2792      1482.144     
   4117000   399.98184     -1.3178524e+08 -5499.6964      1482.1582    
   4118000   399.96167     -1.3178488e+08 -5488.8928      1482.1724    
   4119000   399.96193     -1.317851e+08  -5483.3765      1482.1867    
   4120000   399.99638     -1.3178498e+08 -5489.0943      1482.2009    
