LAMMPS (23 Jun 2022)
KOKKOS mode is enabled (src/KOKKOS/kokkos.cpp:105)
  will use up to 4 GPU(s) per node
  using 1 OpenMP thread(s) per MPI task
package kokkos
package kokkos neigh half newton off
#LAMMPS input file

# ------------------------ INITIALIZATION ----------------------------
processors    * * *
units         metal
dimension    3
boundary    p    p    p
atom_style   charge
atom_modify map array sort 0 1

#--------------------------- LAMMPS Data File--------------------------

read_data    relaxed_step.lmp #reset_relaxed.lmp # model_4.lmp # pre_strained.lmp # High_sep_Cu_45.lmp # Cu_111_FR_45_MIN.lmp
Reading data file ...
  orthogonal box = (-314.8477 -522.43942 600) to (1109.3869 540.14923 1100)
  4 by 4 by 2 MPI processor grid
  reading atoms ...
  37948320 atoms
  reading velocities ...
  37948320 velocities
  read_data CPU = 134.445 seconds
#read_dump   dump.min_1862000.lammpstrj 1862000 x y z vx vy vz
variable  temp equal 350
variable  temp_init equal ${temp}*2
variable  temp_init equal 350*2
variable  sratex equal 5e-6 # in 1/ps (0.5 strain after 10ns)
# ------------------------ FORCE FIELDS ------------------------------
pair_style    eam/alloy
pair_coeff    * * Cu01.eam.alloy.txt Cu # Cu

#------------------------- SETTINGS ---------------------------------

#change_box        all x scale 1.015 remap units box

compute csym all centro/atom fcc
#compute peratom all pe/atom

# compute stresses
#compute       sf all stress/atom NULL

#-------------For Lorentz Forces from QEq----------------------------
# Apply forces
#variable qfx atomfile input_fx_new.txt
#variable qfy atomfile input_fy_new.txt
#variable qfz atomfile input_fz_new.txt
#variable qe atom  -(x*v_qfx+y*v_qfy+z*v_qfz)

#fix force_q1 all addforce v_qfx v_qfy v_qfz energy v_qe
#fix_modify force_q1 energy yes

#delete_atoms group exclude
#fix freez hold setforce 0 0 0
#fix_modify force_q2 energy yes
thermo 1000
thermo_style custom step temp pe press lx
thermo_modify flush yes
#min_style fire
#minimize 0.0 1e-4 100000 100000
#--------Thermal Relax---------------------------
velocity all create ${temp_init} 8 rot no dist gaussian
velocity all create 700 8 rot no dist gaussian
timestep  0.002
fix 1 all langevin ${temp} ${temp} 5 8
fix 1 all langevin 350 ${temp} 5 8
fix 1 all langevin 350 350 5 8
fix ensemble all nve
run 50000
Neighbor list info ...
  update every 1 steps, delay 10 steps, check yes
  max neighbors/atom: 2000, page size: 100000
  master list distance cutoff = 7.506786
  ghost atom cutoff = 7.506786
  binsize = 7.506786, bins = 190 142 67
  2 neighbor lists, perpetual/occasional/extra = 1 1 0
  (1) pair eam/alloy/kk, perpetual
      attributes: half, newton off, kokkos_device
      pair build: half/bin/kk/device
      stencil: full/bin/3d
      bin: kk/device
  (2) compute centro/atom, occasional
      attributes: full, newton off
      pair build: full/bin/atomonly
      stencil: full/bin/3d
      bin: standard
Per MPI rank memory allocation (min/avg/max) = 419 | 460.3 | 502.1 Mbytes
   Step          Temp          PotEng         Press            Lx      
         0   700           -1.3404495e+08  4503.9722      1424.2346    
      1000   350.28743     -1.3233152e+08  7524.7222      1424.2346    
      2000   347.74352     -1.3231662e+08  2933.109       1424.2346    
      3000   344.59901     -1.3228496e+08 -880.303        1424.2346    
      4000   347.98347     -1.3228584e+08  654.12284      1424.2346    
      5000   350.46792     -1.3229546e+08  2781.775       1424.2346    
      6000   351.24349     -1.323028e+08   4721.5114      1424.2346    
      7000   350.51055     -1.3230332e+08  4398.1108      1424.2346    
      8000   349.72342     -1.3230045e+08  3257.7115      1424.2346    
      9000   348.96717     -1.3229414e+08  2155.7703      1424.2346    
     10000   349.11177     -1.3229088e+08  2003.0663      1424.2346    
     11000   349.84782     -1.3229318e+08  2604.1394      1424.2346    
     12000   350.34228     -1.3229589e+08  3233.8936      1424.2346    
     13000   350.39616     -1.322979e+08   3535.2141      1424.2346    
     14000   350.10211     -1.3229752e+08  3310.9739      1424.2346    
     15000   349.82523     -1.3229609e+08  2995.0411      1424.2346    
     16000   349.74776     -1.3229511e+08  2763.4875      1424.2346    
     17000   349.91649     -1.3229534e+08  2879.4348      1424.2346    
     18000   350.00866     -1.3229584e+08  3028.7611      1424.2346    
     19000   350.1365      -1.322969e+08   3180.242       1424.2346    
     20000   350.02944     -1.322968e+08   3128.6219      1424.2346    
     21000   349.97025     -1.322968e+08   3034.3108      1424.2346    
     22000   349.8493      -1.3229561e+08  2938.1089      1424.2346    
     23000   349.9784      -1.3229562e+08  2943.9468      1424.2346    
     24000   350.00318     -1.3229572e+08  2985.401       1424.2346    
     25000   350.06697     -1.3229595e+08  3038.0632      1424.2346    
     26000   349.99208     -1.3229606e+08  3048.8352      1424.2346    
     27000   350.02605     -1.3229596e+08  3040.0592      1424.2346    
     28000   350.11489     -1.3229603e+08  3017.6536      1424.2346    
     29000   350.02992     -1.3229577e+08  3000.5777      1424.2346    
     30000   349.94212     -1.3229557e+08  3009.0077      1424.2346    
     31000   349.95273     -1.3229611e+08  3024.7499      1424.2346    
     32000   350.03849     -1.3229626e+08  3023.9947      1424.2346    
     33000   350.08217     -1.3229615e+08  3021.4505      1424.2346    
     34000   350.02883     -1.3229588e+08  3016.9552      1424.2346    
     35000   350.02716     -1.3229591e+08  3014.024       1424.2346    
     36000   350.01799     -1.3229582e+08  3008.9399      1424.2346    
     37000   350.07368     -1.3229579e+08  3018.098       1424.2346    
     38000   350.03727     -1.3229582e+08  3019.0524      1424.2346    
     39000   350.02855     -1.3229594e+08  3019.8265      1424.2346    
     40000   349.93256     -1.3229572e+08  3022.1626      1424.2346    
     41000   349.98513     -1.3229599e+08  3025.8423      1424.2346    
     42000   349.98843     -1.3229593e+08  3034.0301      1424.2346    
     43000   349.96756     -1.3229599e+08  3013.4806      1424.2346    
     44000   349.99528     -1.3229589e+08  3016.2814      1424.2346    
     45000   349.98123     -1.3229588e+08  3018.8151      1424.2346    
     46000   350.01665     -1.3229611e+08  3024.2156      1424.2346    
     47000   349.99522     -1.3229571e+08  3022.7003      1424.2346    
     48000   350.02563     -1.3229609e+08  3023.1606      1424.2346    
     49000   349.9876      -1.322961e+08   3019.7894      1424.2346    
     50000   349.9635      -1.32296e+08    3016.567       1424.2346    
Loop time of 671.118 on 32 procs for 50000 steps with 37948320 atoms

Performance: 12.874 ns/day, 1.864 hours/ns, 74.503 timesteps/s
72.1% CPU use with 32 MPI tasks x 1 OpenMP threads

MPI task timing breakdown:
Section |  min time  |  avg time  |  max time  |%varavg| %total
---------------------------------------------------------------
Pair    | 230.25     | 245.37     | 257.34     |  61.7 | 36.56
Neigh   | 23.076     | 34.678     | 48.892     | 156.2 |  5.17
Comm    | 40.826     | 51.784     | 63.084     | 143.2 |  7.72
Output  | 0.013567   | 0.65455    | 1.0437     |  46.4 |  0.10
Modify  | 189.23     | 264.83     | 338.3      | 428.0 | 39.46
Other   |            | 73.79      |            |       | 11.00

Nlocal:    1.18588e+06 ave 1.50602e+06 max      854541 min
Histogram: 16 0 0 0 0 0 0 0 0 16
Nghost:         185423 ave      217761 max      152332 min
Histogram: 16 0 0 0 0 0 0 0 0 16
Neighs:    8.57364e+07 ave 1.08881e+08 max 6.17837e+07 min
Histogram: 16 0 0 0 0 0 0 0 0 16
FullNghs:            0 ave           0 max           0 min
Histogram: 32 0 0 0 0 0 0 0 0 0

Total # of neighbors = 2.7435646e+09
Ave neighs/atom = 72.297393
Neighbor list builds = 854
Dangerous builds = 0
unfix ensemble
write_data ${temp}_relaxed_config.lmp
write_data 350_relaxed_config.lmp
System init for write_data ...
#unfix freez
######################################
## NVT Langevin ##
#variable a loop 50
#label loop

#variable Ti equal ${temp}+($a-1)*4
#variable Tf equal ${temp}+$a*4
#reset_ids
#change_box all x scale ${eps} remap units box
fix        2 all deform 1 x erate ${sratex} units box remap x
fix        2 all deform 1 x erate 5e-06 units box remap x
#fix 1 all langevin ${temp} ${temp} 5 98

# Write dump file
#dump        shear all custom 500000 dump.min_*.lammpstrj id x y z # vx vy vz

#dump        defect all custom 100 dump.defect_*.lammpstrj id x y z c_csym
#dump_modify defect thresh c_csym <= 10 thresh c_csym > 4

fix         ensemble all nve
run 5000000
Per MPI rank memory allocation (min/avg/max) = 418.9 | 460.2 | 502 Mbytes
   Step          Temp          PotEng         Press            Lx      
     50000   349.9635      -1.32296e+08    3016.567       1424.2346    
     51000   349.9068      -1.3229604e+08  3007.4639      1424.2488    
     52000   349.97436     -1.3229595e+08  3001.4241      1424.2631    
     53000   350.03506     -1.3229607e+08  3001.9482      1424.2773    
     54000   350.07686     -1.3229626e+08  2995.7903      1424.2915    
     55000   350.07495     -1.3229619e+08  2997.9861      1424.3058    
     56000   349.95567     -1.32296e+08    2993.3592      1424.32      
     57000   349.98893     -1.322963e+08   2985.4322      1424.3343    
     58000   349.93798     -1.32296e+08    2990.4462      1424.3485    
     59000   349.96102     -1.3229583e+08  2989.801       1424.3628    
     60000   349.97342     -1.3229623e+08  2992.6136      1424.377     
     61000   349.99216     -1.3229613e+08  2979.9388      1424.3912    
     62000   349.92871     -1.322962e+08   2969.1165      1424.4055    
     63000   350.0284      -1.3229638e+08  2971.4346      1424.4197    
     64000   349.99198     -1.3229602e+08  2979.5209      1424.434     
     65000   349.94861     -1.3229612e+08  2984.4355      1424.4482    
     66000   349.93343     -1.3229569e+08  2976.6036      1424.4625    
     67000   350.02149     -1.3229612e+08  2972.1815      1424.4767    
     68000   350.05772     -1.322962e+08   2968.6681      1424.4909    
     69000   349.98704     -1.3229602e+08  2965.6975      1424.5052    
     70000   349.90898     -1.3229558e+08  2963.8468      1424.5194    
     71000   349.97896     -1.3229586e+08  2941.9509      1424.5337    
     72000   349.9917      -1.3229585e+08  2942.6451      1424.5479    
     73000   349.93847     -1.322954e+08   2940.7325      1424.5622    
     74000   350.00098     -1.3229583e+08  2953.3714      1424.5764    
     75000   350.05592     -1.3229576e+08  2955.2352      1424.5906    
     76000   349.97086     -1.3229543e+08  2947.2021      1424.6049    
     77000   349.98964     -1.3229612e+08  2935.9547      1424.6191    
     78000   349.97433     -1.3229579e+08  2934.4049      1424.6334    
     79000   350.06183     -1.3229599e+08  2934.1177      1424.6476    
     80000   350.02247     -1.3229595e+08  2923.6183      1424.6618    
     81000   350.03485     -1.3229591e+08  2925.763       1424.6761    
     82000   350.01353     -1.322959e+08   2918.6977      1424.6903    
     83000   349.97542     -1.3229579e+08  2922.077       1424.7046    
     84000   349.9738      -1.3229619e+08  2918.4459      1424.7188    
     85000   349.97486     -1.3229644e+08  2920.0698      1424.7331    
     86000   349.98387     -1.3229618e+08  2907.5835      1424.7473    
     87000   349.95297     -1.3229593e+08  2898.4734      1424.7615    
     88000   349.97408     -1.3229602e+08  2901.8629      1424.7758    
     89000   349.95946     -1.3229553e+08  2910.2193      1424.79      
     90000   350.05198     -1.3229606e+08  2915.4438      1424.8043    
     91000   350.01649     -1.3229567e+08  2896.9037      1424.8185    
     92000   349.91384     -1.3229546e+08  2885.5998      1424.8328    
     93000   349.96514     -1.3229579e+08  2881.856       1424.847     
     94000   350.07422     -1.3229586e+08  2887.3481      1424.8612    
     95000   349.97955     -1.3229586e+08  2886.5409      1424.8755    
     96000   349.95174     -1.3229558e+08  2888.7608      1424.8897    
     97000   349.9821      -1.3229592e+08  2884.4523      1424.904     
     98000   349.96042     -1.3229579e+08  2877.0755      1424.9182    
     99000   349.95493     -1.3229589e+08  2865.9625      1424.9325    
    100000   350.02455     -1.3229629e+08  2870.4069      1424.9467    
    101000   349.93634     -1.3229587e+08  2865.2514      1424.9609    
    102000   349.98538     -1.322957e+08   2868.4433      1424.9752    
    103000   349.97824     -1.3229589e+08  2856.2731      1424.9894    
    104000   349.9595      -1.3229576e+08  2852.2215      1425.0037    
    105000   350.00455     -1.3229596e+08  2854.6719      1425.0179    
    106000   349.99051     -1.3229586e+08  2847.3001      1425.0322    
    107000   349.92852     -1.3229568e+08  2846.139       1425.0464    
    108000   349.98471     -1.3229571e+08  2856.4683      1425.0606    
    109000   350.03745     -1.3229565e+08  2847.4452      1425.0749    
    110000   350.02475     -1.3229559e+08  2852.914       1425.0891    
    111000   349.94409     -1.3229554e+08  2846.2756      1425.1034    
    112000   349.9719      -1.3229566e+08  2837.0247      1425.1176    
    113000   350.02619     -1.3229573e+08  2837.081       1425.1318    
    114000   349.97388     -1.3229531e+08  2836.1856      1425.1461    
    115000   350.03115     -1.3229587e+08  2819.2949      1425.1603    
    116000   349.9436      -1.3229564e+08  2818.0534      1425.1746    
    117000   349.95679     -1.3229548e+08  2812.8877      1425.1888    
    118000   350.03307     -1.3229585e+08  2815.8287      1425.2031    
    119000   350.00772     -1.32296e+08    2812.077       1425.2173    
    120000   349.90068     -1.3229585e+08  2819.4255      1425.2315    
    121000   350.01369     -1.3229616e+08  2811.6859      1425.2458    
    122000   349.9355      -1.322959e+08   2811.6512      1425.26      
    123000   349.97008     -1.3229605e+08  2801.9948      1425.2743    
    124000   349.99507     -1.3229593e+08  2805.6374      1425.2885    
    125000   349.9188      -1.3229604e+08  2804.3526      1425.3028    
    126000   349.88841     -1.3229585e+08  2799.4265      1425.317     
    127000   349.97931     -1.322961e+08   2790.3058      1425.3312    
    128000   349.92537     -1.322959e+08   2791.6254      1425.3455    
    129000   350.04429     -1.3229615e+08  2788.8298      1425.3597    
    130000   350.02027     -1.3229599e+08  2790.4998      1425.374     
    131000   349.97163     -1.3229579e+08  2787.0129      1425.3882    
    132000   349.94457     -1.3229609e+08  2781.5202      1425.4025    
    133000   349.92247     -1.3229575e+08  2772.3469      1425.4167    
    134000   349.90592     -1.3229567e+08  2769.1359      1425.4309    
    135000   349.91389     -1.322959e+08   2765.2525      1425.4452    
    136000   349.96833     -1.3229592e+08  2772.0465      1425.4594    
    137000   349.91883     -1.3229571e+08  2776.6232      1425.4737    
    138000   350.03506     -1.3229595e+08  2776.5923      1425.4879    
    139000   349.99961     -1.3229574e+08  2760.4416      1425.5021    
    140000   350.00204     -1.3229604e+08  2747.3725      1425.5164    
    141000   349.96243     -1.3229548e+08  2748.7313      1425.5306    
    142000   349.99693     -1.3229539e+08  2756.7631      1425.5449    
    143000   349.99417     -1.3229589e+08  2748.4925      1425.5591    
    144000   350.01109     -1.3229582e+08  2756.5703      1425.5734    
    145000   350.00314     -1.3229564e+08  2743.1613      1425.5876    
    146000   349.99261     -1.3229568e+08  2734.5382      1425.6018    
    147000   350.03408     -1.3229551e+08  2735.6353      1425.6161    
    148000   350.02328     -1.3229561e+08  2735.5381      1425.6303    
    149000   349.97602     -1.3229547e+08  2734.9705      1425.6446    
    150000   349.9419      -1.3229503e+08  2729.0394      1425.6588    
    151000   350.06537     -1.3229534e+08  2728.6144      1425.6731    
    152000   350.03551     -1.3229546e+08  2728.192       1425.6873    
    153000   349.97399     -1.3229524e+08  2724.6051      1425.7015    
    154000   350.02563     -1.322953e+08   2730.528       1425.7158    
    155000   350.02421     -1.3229513e+08  2725.0482      1425.73      
    156000   349.98043     -1.3229515e+08  2722.7858      1425.7443    
    157000   350.0004      -1.3229533e+08  2705.3694      1425.7585    
    158000   349.94756     -1.3229528e+08  2702.7476      1425.7728    
    159000   350.08553     -1.3229577e+08  2698.1277      1425.787     
    160000   350.00527     -1.3229518e+08  2699.2604      1425.8012    
    161000   350.03624     -1.3229546e+08  2689.2233      1425.8155    
    162000   349.99005     -1.3229536e+08  2689.3892      1425.8297    
    163000   350.00279     -1.3229543e+08  2694.187       1425.844     
    164000   349.9617      -1.3229561e+08  2687.1247      1425.8582    
    165000   350.00585     -1.3229575e+08  2688.3111      1425.8724    
    166000   350.00381     -1.3229546e+08  2684.054       1425.8867    
    167000   349.96254     -1.3229521e+08  2685.6196      1425.9009    
    168000   349.95806     -1.3229508e+08  2669.4256      1425.9152    
    169000   350.05833     -1.3229531e+08  2669.7513      1425.9294    
    170000   350.04949     -1.322954e+08   2665.8326      1425.9437    
    171000   350.01863     -1.3229554e+08  2672.2173      1425.9579    
    172000   349.96034     -1.3229521e+08  2675.9301      1425.9721    
    173000   349.94858     -1.3229541e+08  2674.4352      1425.9864    
    174000   349.93809     -1.322954e+08   2668.8941      1426.0006    
    175000   349.96565     -1.3229549e+08  2658.763       1426.0149    
    176000   350.01938     -1.3229552e+08  2658.0331      1426.0291    
    177000   350.10739     -1.3229532e+08  2659.8748      1426.0434    
    178000   350.01707     -1.3229521e+08  2673.5099      1426.0576    
    179000   350.02329     -1.322954e+08   2665.5086      1426.0718    
    180000   350.0488      -1.3229539e+08  2650.6338      1426.0861    
    181000   350.06391     -1.3229513e+08  2641.2935      1426.1003    
    182000   350.01472     -1.3229529e+08  2640.086       1426.1146    
    183000   349.91445     -1.3229491e+08  2637.6511      1426.1288    
    184000   349.92728     -1.322954e+08   2627.9893      1426.1431    
    185000   350.00313     -1.322953e+08   2639.5075      1426.1573    
    186000   350.03334     -1.3229537e+08  2634.5115      1426.1715    
    187000   350.04241     -1.3229544e+08  2626.3499      1426.1858    
    188000   350.01261     -1.3229496e+08  2627.0449      1426.2       
    189000   349.90067     -1.3229487e+08  2618.4585      1426.2143    
    190000   350.03816     -1.3229518e+08  2615.5974      1426.2285    
    191000   349.9886      -1.3229517e+08  2618.3463      1426.2428    
    192000   349.99501     -1.3229552e+08  2604.4588      1426.257     
    193000   349.98686     -1.3229589e+08  2607.4711      1426.2712    
    194000   349.94713     -1.3229599e+08  2609.5739      1426.2855    
    195000   349.85288     -1.3229541e+08  2608.3518      1426.2997    
    196000   349.91095     -1.322954e+08   2598.3595      1426.314     
    197000   349.94922     -1.3229523e+08  2592.0653      1426.3282    
    198000   349.9518      -1.3229555e+08  2585.0463      1426.3424    
    199000   349.9758      -1.3229546e+08  2579.7239      1426.3567    
    200000   349.95255     -1.3229574e+08  2574.4169      1426.3709    
    201000   349.95815     -1.3229546e+08  2577.7994      1426.3852    
    202000   349.98614     -1.3229517e+08  2585.9705      1426.3994    
    203000   349.96778     -1.3229533e+08  2581.0146      1426.4137    
    204000   350.00526     -1.3229516e+08  2573.0055      1426.4279    
    205000   349.94945     -1.3229517e+08  2571.9423      1426.4421    
    206000   349.91505     -1.3229525e+08  2577.1538      1426.4564    
    207000   349.95696     -1.322955e+08   2565.3619      1426.4706    
    208000   349.95452     -1.3229514e+08  2576.0785      1426.4849    
    209000   349.97076     -1.3229546e+08  2572.572       1426.4991    
    210000   349.94236     -1.3229506e+08  2570.0038      1426.5134    
    211000   350.01558     -1.3229537e+08  2561.2572      1426.5276    
    212000   350.00863     -1.3229533e+08  2556.1478      1426.5418    
    213000   349.97089     -1.3229528e+08  2554.6892      1426.5561    
    214000   350.00834     -1.3229542e+08  2556.3858      1426.5703    
    215000   350.01556     -1.3229532e+08  2556.0284      1426.5846    
    216000   349.97028     -1.3229491e+08  2538.7912      1426.5988    
    217000   350.03522     -1.3229523e+08  2533.3358      1426.6131    
    218000   349.9633      -1.3229515e+08  2523.7226      1426.6273    
    219000   350.0026      -1.3229495e+08  2523.086       1426.6415    
    220000   350.04449     -1.3229498e+08  2532.621       1426.6558    
    221000   350.05686     -1.3229503e+08  2545.9489      1426.67      
    222000   349.94306     -1.32295e+08    2543.0721      1426.6843    
    223000   350.00684     -1.3229533e+08  2528.7587      1426.6985    
    224000   350.01804     -1.3229511e+08  2507.2465      1426.7127    
    225000   349.94591     -1.3229457e+08  2506.1751      1426.727     
    226000   349.9971      -1.3229527e+08  2514.059       1426.7412    
    227000   350.05304     -1.3229518e+08  2509.9084      1426.7555    
    228000   350.01409     -1.3229516e+08  2523.2756      1426.7697    
    229000   349.9596      -1.3229528e+08  2510.2494      1426.784     
    230000   349.94434     -1.3229499e+08  2509.573       1426.7982    
    231000   350.02793     -1.3229554e+08  2503.5558      1426.8124    
    232000   350.04189     -1.3229527e+08  2504.8498      1426.8267    
    233000   350.05745     -1.3229533e+08  2494.6204      1426.8409    
    234000   349.93483     -1.3229504e+08  2483.0682      1426.8552    
    235000   349.97993     -1.3229519e+08  2487.2731      1426.8694    
    236000   349.97729     -1.3229482e+08  2495.6906      1426.8837    
    237000   350.12024     -1.3229512e+08  2482.2531      1426.8979    
    238000   349.98214     -1.322947e+08   2478.7062      1426.9121    
    239000   349.93682     -1.322946e+08   2465.4471      1426.9264    
    240000   350.06593     -1.3229495e+08  2465.8917      1426.9406    
    241000   350.04556     -1.3229468e+08  2468.2406      1426.9549    
    242000   350.05127     -1.3229492e+08  2469.1038      1426.9691    
    243000   349.98246     -1.3229497e+08  2475.292       1426.9834    
    244000   349.96535     -1.3229517e+08  2477.9492      1426.9976    
    245000   349.97505     -1.3229484e+08  2473.1691      1427.0118    
    246000   349.97791     -1.3229506e+08  2452.856       1427.0261    
    247000   349.97829     -1.3229471e+08  2448.1556      1427.0403    
    248000   350.07878     -1.3229486e+08  2448.0237      1427.0546    
    249000   349.99617     -1.3229453e+08  2450.5597      1427.0688    
    250000   350.02509     -1.3229482e+08  2457.4025      1427.083     
    251000   349.95914     -1.3229491e+08  2448.9668      1427.0973    
    252000   349.95621     -1.3229506e+08  2444.0325      1427.1115    
    253000   349.97639     -1.3229484e+08  2445.8199      1427.1258    
    254000   350.02609     -1.322951e+08   2435.2821      1427.14      
    255000   349.99196     -1.3229478e+08  2434.7977      1427.1543    
    256000   350.08758     -1.3229477e+08  2423.6158      1427.1685    
    257000   350.04977     -1.322946e+08   2432.5837      1427.1827    
    258000   350.03565     -1.3229483e+08  2433.8304      1427.197     
    259000   350.02229     -1.3229479e+08  2432.5781      1427.2112    
    260000   350.03051     -1.3229481e+08  2429.0532      1427.2255    
    261000   349.94985     -1.3229443e+08  2421.1852      1427.2397    
    262000   350.05488     -1.3229463e+08  2406.798       1427.254     
    263000   350.05771     -1.3229443e+08  2402.138       1427.2682    
    264000   350.08786     -1.3229461e+08  2403.8663      1427.2824    
    265000   350.08437     -1.3229454e+08  2412.0331      1427.2967    
    266000   349.9815      -1.3229431e+08  2415.536       1427.3109    
    267000   350.02133     -1.322949e+08   2409.5285      1427.3252    
    268000   350.0006      -1.3229468e+08  2409.0732      1427.3394    
    269000   349.98354     -1.3229467e+08  2390.5586      1427.3537    
    270000   349.99731     -1.3229475e+08  2389.1044      1427.3679    
    271000   349.98186     -1.3229507e+08  2378.6538      1427.3821    
    272000   349.94097     -1.3229486e+08  2388.4765      1427.3964    
    273000   349.91212     -1.3229471e+08  2386.0576      1427.4106    
    274000   349.96423     -1.3229435e+08  2384.4225      1427.4249    
    275000   349.99836     -1.3229431e+08  2375.0679      1427.4391    
    276000   350.06022     -1.3229457e+08  2377.6935      1427.4533    
    277000   349.97791     -1.3229453e+08  2381.7852      1427.4676    
    278000   350.05046     -1.3229462e+08  2385.7039      1427.4818    
    279000   350.01437     -1.322947e+08   2378.9116      1427.4961    
    280000   349.92964     -1.3229451e+08  2366.9475      1427.5103    
    281000   349.95401     -1.3229488e+08  2358.922       1427.5246    
    282000   349.94691     -1.3229455e+08  2355.9254      1427.5388    
    283000   349.9926      -1.3229472e+08  2355.2044      1427.553     
    284000   349.98729     -1.3229439e+08  2352.6714      1427.5673    
    285000   350.04493     -1.3229463e+08  2356.1557      1427.5815    
    286000   350.08425     -1.3229462e+08  2350.0051      1427.5958    
    287000   349.99987     -1.3229445e+08  2349.4128      1427.61      
    288000   350.01717     -1.3229422e+08  2344.9539      1427.6243    
    289000   350.03357     -1.3229441e+08  2338.617       1427.6385    
    290000   350.00633     -1.32294e+08    2336.0179      1427.6527    
    291000   350.0263      -1.3229416e+08  2332.1053      1427.667     
    292000   350.02861     -1.3229401e+08  2333.3156      1427.6812    
    293000   350.01165     -1.3229382e+08  2333.7369      1427.6955    
    294000   350.10301     -1.3229429e+08  2321.7812      1427.7097    
    295000   350.06959     -1.322942e+08   2319.0868      1427.724     
    296000   350.0474      -1.3229444e+08  2314.498       1427.7382    
    297000   349.98642     -1.3229448e+08  2321.0213      1427.7524    
    298000   349.95604     -1.3229418e+08  2312.4578      1427.7667    
    299000   349.97422     -1.322939e+08   2318.4576      1427.7809    
    300000   350.04092     -1.3229427e+08  2307.7456      1427.7952    
    301000   350.04632     -1.3229461e+08  2310.362       1427.8094    
    302000   350.03959     -1.3229457e+08  2306.9709      1427.8237    
    303000   350.01053     -1.3229453e+08  2301.025       1427.8379    
    304000   349.94258     -1.322945e+08   2299.1385      1427.8521    
    305000   349.96798     -1.3229447e+08  2294.1773      1427.8664    
    306000   350.01363     -1.322947e+08   2295.3605      1427.8806    
    307000   349.99953     -1.3229406e+08  2308.2585      1427.8949    
    308000   350.00639     -1.3229404e+08  2305.9175      1427.9091    
    309000   350.04279     -1.3229411e+08  2290.0865      1427.9233    
    310000   350.02157     -1.3229438e+08  2277.7499      1427.9376    
    311000   349.97696     -1.3229412e+08  2271.0384      1427.9518    
    312000   349.98976     -1.3229408e+08  2274.1575      1427.9661    
    313000   349.98921     -1.3229409e+08  2282.4678      1427.9803    
    314000   350.00217     -1.3229424e+08  2285.4464      1427.9946    
    315000   350.04363     -1.3229445e+08  2279.6827      1428.0088    
    316000   349.96272     -1.322943e+08   2262.1867      1428.023     
    317000   349.97975     -1.3229406e+08  2252.0016      1428.0373    
    318000   349.96383     -1.3229452e+08  2243.4582      1428.0515    
    319000   350.03419     -1.3229454e+08  2254.1729      1428.0658    
    320000   350.02064     -1.3229424e+08  2251.1834      1428.08      
    321000   349.96283     -1.3229394e+08  2256.9836      1428.0943    
    322000   349.92436     -1.3229407e+08  2249.9777      1428.1085    
    323000   349.95628     -1.3229412e+08  2247.587       1428.1227    
    324000   350.00037     -1.3229424e+08  2241.4282      1428.137     
    325000   349.98699     -1.3229371e+08  2239.3883      1428.1512    
    326000   350.01227     -1.3229398e+08  2233.3528      1428.1655    
    327000   349.97425     -1.3229378e+08  2235.4939      1428.1797    
    328000   349.98223     -1.3229381e+08  2230.3504      1428.194     
    329000   350.12146     -1.3229391e+08  2231.4065      1428.2082    
    330000   349.98773     -1.3229416e+08  2225.468       1428.2224    
    331000   349.97555     -1.3229367e+08  2222.4558      1428.2367    
    332000   350.0366      -1.3229396e+08  2222.2676      1428.2509    
    333000   349.98533     -1.3229364e+08  2213.6985      1428.2652    
    334000   350.00997     -1.322935e+08   2212.9659      1428.2794    
    335000   350.01812     -1.3229352e+08  2207.379       1428.2936    
    336000   350.08072     -1.3229388e+08  2208.9052      1428.3079    
    337000   350.097       -1.3229371e+08  2208.1846      1428.3221    
    338000   350.05267     -1.3229353e+08  2221.9681      1428.3364    
    339000   350.00364     -1.3229345e+08  2210.3648      1428.3506    
    340000   349.99725     -1.3229361e+08  2191.0512      1428.3649    
    341000   350.00665     -1.3229376e+08  2185.5395      1428.3791    
    342000   349.99083     -1.3229386e+08  2197.8697      1428.3933    
    343000   350.05295     -1.322939e+08   2197.3251      1428.4076    
    344000   350.03333     -1.3229363e+08  2202.6774      1428.4218    
    345000   350.00285     -1.3229353e+08  2185.3327      1428.4361    
    346000   350.02592     -1.3229305e+08  2178.1562      1428.4503    
    347000   350.01004     -1.3229301e+08  2172.861       1428.4646    
    348000   350.02134     -1.3229377e+08  2171.7745      1428.4788    
    349000   350.03727     -1.322935e+08   2177.7846      1428.493     
    350000   349.99697     -1.3229339e+08  2173.8142      1428.5073    
    351000   350.02392     -1.3229383e+08  2163.2971      1428.5215    
    352000   350.05449     -1.3229368e+08  2165.469       1428.5358    
    353000   349.98735     -1.3229322e+08  2163.5976      1428.55      
    354000   349.97806     -1.3229351e+08  2163.4784      1428.5643    
    355000   349.99409     -1.3229366e+08  2169.5836      1428.5785    
    356000   350.03944     -1.3229394e+08  2163.2209      1428.5927    
    357000   350.01182     -1.322936e+08   2159.3388      1428.607     
    358000   349.98422     -1.3229369e+08  2150.091       1428.6212    
    359000   349.98721     -1.3229401e+08  2146.2719      1428.6355    
    360000   349.98715     -1.3229366e+08  2145.5826      1428.6497    
    361000   350.00501     -1.3229396e+08  2141.0522      1428.6639    
    362000   349.89329     -1.3229347e+08  2135.6842      1428.6782    
    363000   349.89207     -1.3229353e+08  2141.8964      1428.6924    
    364000   349.98656     -1.3229384e+08  2139.9667      1428.7067    
    365000   349.91773     -1.3229359e+08  2136.6109      1428.7209    
    366000   349.92288     -1.3229363e+08  2118.6821      1428.7352    
    367000   350.03268     -1.322937e+08   2107.6244      1428.7494    
    368000   350.05863     -1.3229391e+08  2106.2737      1428.7636    
    369000   349.88174     -1.3229343e+08  2114.4049      1428.7779    
    370000   349.95        -1.3229399e+08  2116.0888      1428.7921    
    371000   349.94131     -1.3229384e+08  2117.7437      1428.8064    
    372000   349.90235     -1.3229382e+08  2113.5972      1428.8206    
    373000   349.93907     -1.3229394e+08  2115.7554      1428.8349    
    374000   349.93789     -1.3229387e+08  2113.5681      1428.8491    
    375000   349.92223     -1.322934e+08   2103.5498      1428.8633    
    376000   350.00473     -1.3229345e+08  2096.8988      1428.8776    
    377000   350.04961     -1.3229319e+08  2086.8287      1428.8918    
    378000   349.98595     -1.3229333e+08  2087.1349      1428.9061    
    379000   349.96543     -1.3229337e+08  2089.8761      1428.9203    
    380000   349.97543     -1.3229338e+08  2095.8218      1428.9346    
    381000   349.98196     -1.3229344e+08  2094.3424      1428.9488    
    382000   349.91839     -1.3229329e+08  2088.2172      1428.963     
    383000   350.01594     -1.3229344e+08  2069.556       1428.9773    
    384000   349.91826     -1.3229345e+08  2061.8632      1428.9915    
    385000   349.94817     -1.3229336e+08  2067.579       1429.0058    
    386000   350.00068     -1.3229336e+08  2073.3632      1429.02      
    387000   350.0082      -1.3229353e+08  2066.1352      1429.0343    
    388000   349.98674     -1.3229348e+08  2065.9952      1429.0485    
    389000   349.97945     -1.3229305e+08  2062.6577      1429.0627    
    390000   350.01325     -1.3229311e+08  2064.5718      1429.077     
    391000   350.03172     -1.3229325e+08  2060.8715      1429.0912    
    392000   350.05619     -1.3229284e+08  2053.228       1429.1055    
    393000   350.0913      -1.3229298e+08  2047.4886      1429.1197    
    394000   350.051       -1.3229296e+08  2042.2401      1429.1339    
    395000   350.01438     -1.322928e+08   2032.7725      1429.1482    
    396000   349.97754     -1.3229289e+08  2042.6425      1429.1624    
    397000   349.92003     -1.3229302e+08  2037.2012      1429.1767    
    398000   349.93079     -1.3229334e+08  2039.3839      1429.1909    
    399000   349.96625     -1.3229329e+08  2037.8708      1429.2052    
    400000   349.99885     -1.3229321e+08  2039.7043      1429.2194    
    401000   349.98004     -1.3229323e+08  2029.9714      1429.2336    
    402000   349.92779     -1.3229298e+08  2029.8733      1429.2479    
    403000   349.9879      -1.3229277e+08  2024.2983      1429.2621    
    404000   350.0978      -1.3229286e+08  2024.4264      1429.2764    
    405000   349.99763     -1.3229281e+08  2015.5598      1429.2906    
    406000   350.01755     -1.3229294e+08  2021.7399      1429.3049    
    407000   350.04608     -1.3229307e+08  2012.4644      1429.3191    
    408000   349.9208      -1.3229257e+08  2008.4774      1429.3333    
    409000   350.03159     -1.3229341e+08  2000.964       1429.3476    
    410000   349.97359     -1.3229298e+08  2003.8447      1429.3618    
    411000   349.96974     -1.3229302e+08  1999.5262      1429.3761    
    412000   350.0213      -1.3229242e+08  2003.7846      1429.3903    
    413000   349.98238     -1.3229264e+08  2007.0116      1429.4046    
    414000   350.00725     -1.3229251e+08  2006.1041      1429.4188    
    415000   349.98384     -1.3229271e+08  2003.2037      1429.433     
    416000   349.96594     -1.3229277e+08  1986.6208      1429.4473    
    417000   349.98642     -1.3229275e+08  1987.4717      1429.4615    
    418000   349.97189     -1.3229262e+08  1978.6141      1429.4758    
    419000   350.00242     -1.3229251e+08  1983.9384      1429.49      
    420000   349.98735     -1.3229239e+08  1983.2224      1429.5042    
    421000   350.00334     -1.3229232e+08  1972.9321      1429.5185    
    422000   350.02368     -1.3229259e+08  1971.7044      1429.5327    
    423000   349.98549     -1.3229258e+08  1967.3252      1429.547     
    424000   349.96132     -1.3229282e+08  1971.5898      1429.5612    
    425000   349.95616     -1.3229277e+08  1969.7428      1429.5755    
    426000   349.95998     -1.3229278e+08  1971.7032      1429.5897    
    427000   349.99564     -1.3229255e+08  1960.7005      1429.6039    
    428000   350.02091     -1.3229298e+08  1955.4806      1429.6182    
    429000   350.00235     -1.3229246e+08  1953.0534      1429.6324    
    430000   350.0209      -1.322927e+08   1947.5435      1429.6467    
    431000   349.96731     -1.3229232e+08  1950.4564      1429.6609    
    432000   350.01731     -1.3229252e+08  1946.3597      1429.6752    
    433000   350.07108     -1.3229247e+08  1939.6531      1429.6894    
    434000   350.04111     -1.3229255e+08  1939.4081      1429.7036    
    435000   349.96648     -1.3229235e+08  1928.7994      1429.7179    
    436000   350.02244     -1.3229284e+08  1917.5613      1429.7321    
    437000   349.96334     -1.3229261e+08  1926.5209      1429.7464    
    438000   349.97692     -1.3229256e+08  1940.3017      1429.7606    
    439000   350.02815     -1.3229286e+08  1938.1502      1429.7749    
    440000   349.94673     -1.3229293e+08  1929.0939      1429.7891    
    441000   349.87229     -1.3229279e+08  1925.5158      1429.8033    
    442000   349.92323     -1.3229305e+08  1922.632       1429.8176    
    443000   349.97038     -1.3229262e+08  1919.8362      1429.8318    
    444000   349.98372     -1.3229263e+08  1919.6529      1429.8461    
    445000   350.0546      -1.3229249e+08  1914.698       1429.8603    
    446000   349.99063     -1.3229239e+08  1913.6947      1429.8745    
    447000   349.99771     -1.3229266e+08  1904.2537      1429.8888    
    448000   349.9947      -1.3229252e+08  1897.9327      1429.903     
    449000   349.95358     -1.3229252e+08  1891.6604      1429.9173    
    450000   349.91408     -1.322925e+08   1905.4168      1429.9315    
    451000   349.98666     -1.3229301e+08  1902.3688      1429.9458    
    452000   349.9996      -1.3229279e+08  1895.9078      1429.96      
    453000   349.96451     -1.3229267e+08  1895.2943      1429.9742    
    454000   349.95063     -1.3229217e+08  1892.4025      1429.9885    
    455000   349.97562     -1.3229223e+08  1886.1809      1430.0027    
    456000   349.93744     -1.3229209e+08  1867.3173      1430.017     
    457000   349.96488     -1.3229258e+08  1871.4495      1430.0312    
    458000   349.97284     -1.3229237e+08  1872.1933      1430.0455    
    459000   349.91818     -1.3229242e+08  1876.9821      1430.0597    
    460000   349.97569     -1.322924e+08   1876.9596      1430.0739    
    461000   349.9273      -1.3229199e+08  1868.1003      1430.0882    
    462000   349.98651     -1.3229214e+08  1863.888       1430.1024    
    463000   350.02462     -1.3229232e+08  1858.7622      1430.1167    
    464000   350.00088     -1.3229223e+08  1852.774       1430.1309    
    465000   349.92104     -1.3229182e+08  1848.8719      1430.1452    
    466000   350.01728     -1.3229194e+08  1854.3495      1430.1594    
    467000   349.96638     -1.322919e+08   1854.286       1430.1736    
    468000   349.92954     -1.3229219e+08  1849.3224      1430.1879    
    469000   350.00137     -1.3229241e+08  1848.7713      1430.2021    
    470000   349.90504     -1.3229228e+08  1845.5476      1430.2164    
    471000   349.91654     -1.3229234e+08  1840.4046      1430.2306    
    472000   349.89323     -1.3229229e+08  1838.088       1430.2448    
    473000   349.88469     -1.322923e+08   1825.8206      1430.2591    
    474000   349.93807     -1.3229256e+08  1824.959       1430.2733    
    475000   349.94912     -1.322923e+08   1828.2075      1430.2876    
    476000   349.94475     -1.3229226e+08  1825.8661      1430.3018    
    477000   349.93485     -1.3229228e+08  1833.6198      1430.3161    
    478000   349.958       -1.3229232e+08  1813.1553      1430.3303    
    479000   349.94503     -1.3229229e+08  1813.8524      1430.3445    
    480000   349.95644     -1.3229212e+08  1806.7369      1430.3588    
    481000   349.91771     -1.3229182e+08  1811.1147      1430.373     
    482000   349.94124     -1.3229211e+08  1808.939       1430.3873    
    483000   349.99327     -1.3229203e+08  1797.4774      1430.4015    
    484000   349.98015     -1.3229151e+08  1800.1358      1430.4158    
    485000   349.94841     -1.3229135e+08  1802.5216      1430.43      
    486000   350.07317     -1.3229165e+08  1803.6252      1430.4442    
    487000   350.07231     -1.3229174e+08  1800.8636      1430.4585    
    488000   350.04984     -1.3229182e+08  1795.8259      1430.4727    
    489000   350.03955     -1.3229157e+08  1787.3941      1430.487     
    490000   350.08681     -1.3229156e+08  1785.7819      1430.5012    
    491000   350.04953     -1.3229151e+08  1780.8174      1430.5155    
    492000   350.06203     -1.3229183e+08  1779.7203      1430.5297    
    493000   350.07396     -1.3229182e+08  1782.9034      1430.5439    
    494000   349.99756     -1.3229131e+08  1782.5768      1430.5582    
    495000   350.00503     -1.3229154e+08  1777.2168      1430.5724    
    496000   350.04339     -1.3229156e+08  1771.9258      1430.5867    
    497000   350.03096     -1.3229158e+08  1776.517       1430.6009    
    498000   350.03309     -1.3229152e+08  1770.0974      1430.6152    
    499000   350.00977     -1.3229157e+08  1767.3081      1430.6294    
    500000   350.02806     -1.3229166e+08  1761.2531      1430.6436    
    501000   350.0011      -1.3229168e+08  1758.1627      1430.6579    
    502000   349.97947     -1.3229188e+08  1738.4426      1430.6721    
    503000   349.96979     -1.3229196e+08  1734.5305      1430.6864    
    504000   349.99645     -1.3229194e+08  1741.1295      1430.7006    
    505000   349.95923     -1.3229137e+08  1750.0838      1430.7148    
    506000   349.9519      -1.3229155e+08  1750.2574      1430.7291    
    507000   349.97654     -1.3229126e+08  1742.5753      1430.7433    
    508000   350.06556     -1.3229138e+08  1732.052       1430.7576    
    509000   349.93542     -1.3229119e+08  1728.2798      1430.7718    
    510000   349.99509     -1.322912e+08   1726.362       1430.7861    
    511000   349.9958      -1.3229141e+08  1729.9646      1430.8003    
    512000   350.01322     -1.3229127e+08  1719.9471      1430.8145    
    513000   349.9424      -1.3229097e+08  1718.4902      1430.8288    
    514000   350.00091     -1.3229128e+08  1711.9385      1430.843     
    515000   349.96657     -1.3229102e+08  1718.4579      1430.8573    
    516000   349.9748      -1.3229122e+08  1719.1517      1430.8715    
    517000   349.9662      -1.3229146e+08  1712.3063      1430.8858    
    518000   349.98645     -1.3229123e+08  1714.2853      1430.9       
    519000   349.9797      -1.3229076e+08  1706.5884      1430.9142    
    520000   349.9818      -1.3229086e+08  1704.9084      1430.9285    
    521000   350.07606     -1.3229109e+08  1701.3265      1430.9427    
    522000   350.03476     -1.3229105e+08  1703.494       1430.957     
    523000   350.0186      -1.3229119e+08  1695.8287      1430.9712    
    524000   349.93867     -1.3229063e+08  1691.3355      1430.9855    
    525000   350.04        -1.3229156e+08  1692.7636      1430.9997    
    526000   349.89612     -1.3229075e+08  1700.984       1431.0139    
    527000   349.98045     -1.3229083e+08  1705.0687      1431.0282    
    528000   350.03781     -1.322911e+08   1681.1992      1431.0424    
    529000   350.05691     -1.32291e+08    1677.5483      1431.0567    
    530000   350.03068     -1.3229094e+08  1666.1215      1431.0709    
    531000   349.97215     -1.3229074e+08  1676.2518      1431.0851    
    532000   350.04274     -1.322911e+08   1676.3808      1431.0994    
    533000   350.03575     -1.3229085e+08  1685.8068      1431.1136    
    534000   350.05141     -1.3229055e+08  1678.2518      1431.1279    
    535000   350.07758     -1.3229059e+08  1664.1612      1431.1421    
    536000   349.96779     -1.3229042e+08  1657.0512      1431.1564    
    537000   350.07384     -1.3229095e+08  1651.1915      1431.1706    
    538000   350.02713     -1.3229075e+08  1658.7107      1431.1848    
    539000   350.08471     -1.322907e+08   1657.0929      1431.1991    
    540000   349.95716     -1.3229065e+08  1659.3448      1431.2133    
    541000   350.01298     -1.3229092e+08  1644.0222      1431.2276    
    542000   350.04194     -1.3229066e+08  1631.0141      1431.2418    
    543000   350.09307     -1.3229089e+08  1631.2278      1431.2561    
    544000   349.97615     -1.3229051e+08  1632.0047      1431.2703    
    545000   350.03523     -1.3229059e+08  1637.4801      1431.2845    
    546000   349.98032     -1.3229033e+08  1633.6998      1431.2988    
    547000   349.92264     -1.3229026e+08  1634.5351      1431.313     
    548000   350.00909     -1.3229074e+08  1625.8198      1431.3273    
    549000   350.006       -1.3229056e+08  1632.7038      1431.3415    
    550000   350.00734     -1.3229063e+08  1637.445       1431.3558    
    551000   349.96447     -1.3229064e+08  1628.4279      1431.37      
    552000   349.8988      -1.3229031e+08  1616.1684      1431.3842    
    553000   349.96655     -1.3229068e+08  1616.2484      1431.3985    
    554000   349.96412     -1.3229098e+08  1615.3606      1431.4127    
    555000   349.99569     -1.3229063e+08  1615.1723      1431.427     
    556000   349.96378     -1.3229044e+08  1612.6435      1431.4412    
    557000   350.01834     -1.3229022e+08  1616.3168      1431.4554    
    558000   349.96621     -1.3229035e+08  1608.3551      1431.4697    
    559000   349.94968     -1.3229031e+08  1593.0653      1431.4839    
    560000   349.96846     -1.3229035e+08  1591.4664      1431.4982    
    561000   350.00466     -1.3229029e+08  1592.8708      1431.5124    
    562000   350.05714     -1.3229083e+08  1598.9548      1431.5267    
    563000   349.9833      -1.3229059e+08  1586.2755      1431.5409    
    564000   349.91573     -1.3229056e+08  1586.8527      1431.5551    
    565000   349.93584     -1.3229043e+08  1574.5326      1431.5694    
    566000   349.98471     -1.3229057e+08  1582.6336      1431.5836    
    567000   349.9917      -1.3229029e+08  1571.9141      1431.5979    
    568000   350.03657     -1.3229056e+08  1572.9911      1431.6121    
    569000   349.9452      -1.3229014e+08  1573.0962      1431.6264    
    570000   349.99413     -1.3229012e+08  1568.2837      1431.6406    
    571000   350.04712     -1.3229007e+08  1563.6822      1431.6548    
    572000   350.05681     -1.3228996e+08  1555.9334      1431.6691    
    573000   350.01003     -1.3229002e+08  1557.8484      1431.6833    
    574000   349.96389     -1.3229032e+08  1551.9497      1431.6976    
    575000   349.91761     -1.322901e+08   1555.7771      1431.7118    
    576000   350.01497     -1.322905e+08   1561.9211      1431.7261    
    577000   349.99017     -1.3229001e+08  1558.712       1431.7403    
    578000   349.95805     -1.3228978e+08  1548.4031      1431.7545    
    579000   350.00638     -1.3229008e+08  1540.8616      1431.7688    
    580000   350.03034     -1.3228982e+08  1536.5492      1431.783     
    581000   350.03288     -1.322899e+08   1538.4835      1431.7973    
    582000   350.03281     -1.3228985e+08  1539.4531      1431.8115    
    583000   349.97143     -1.3228975e+08  1540.9782      1431.8257    
    584000   349.97698     -1.3228973e+08  1537.9754      1431.84      
    585000   350.00163     -1.3228954e+08  1539.195       1431.8542    
    586000   350.01629     -1.3228966e+08  1536.0993      1431.8685    
    587000   349.98782     -1.3228963e+08  1520.9012      1431.8827    
    588000   350.02647     -1.3228951e+08  1530.3098      1431.897     
    589000   350.07017     -1.3228982e+08  1527.3582      1431.9112    
    590000   350.01612     -1.3228933e+08  1522.9999      1431.9254    
    591000   350.05541     -1.3228903e+08  1515.0893      1431.9397    
    592000   350.07509     -1.3228927e+08  1501.33        1431.9539    
    593000   350.10907     -1.3228932e+08  1501.5133      1431.9682    
    594000   350.0341      -1.3228962e+08  1504.5304      1431.9824    
    595000   350.07171     -1.3228962e+08  1514.8585      1431.9967    
    596000   350.05579     -1.3228966e+08  1506.3878      1432.0109    
    597000   349.99783     -1.3228958e+08  1498.2242      1432.0251    
    598000   350.06336     -1.3228989e+08  1487.8283      1432.0394    
    599000   349.93733     -1.3228955e+08  1484.3431      1432.0536    
    600000   349.99281     -1.3228967e+08  1484.2137      1432.0679    
    601000   350.06282     -1.3228982e+08  1475.8454      1432.0821    
    602000   349.98746     -1.3228921e+08  1483.5718      1432.0964    
    603000   350.03241     -1.3228936e+08  1478.7303      1432.1106    
    604000   350.00704     -1.3228929e+08  1482.5988      1432.1248    
    605000   350.09451     -1.3228991e+08  1467.2022      1432.1391    
    606000   349.98991     -1.3228933e+08  1470.8456      1432.1533    
    607000   350.00051     -1.3228921e+08  1461.888       1432.1676    
    608000   349.99889     -1.3228942e+08  1467.525       1432.1818    
    609000   350.0085      -1.322894e+08   1471.5769      1432.1961    
    610000   350.00901     -1.3228933e+08  1473.4461      1432.2103    
    611000   350.01255     -1.322893e+08   1457.1279      1432.2245    
    612000   350.01776     -1.3228945e+08  1454.4259      1432.2388    
    613000   349.99044     -1.3228885e+08  1445.9154      1432.253     
    614000   349.94998     -1.3228913e+08  1457.0163      1432.2673    
    615000   349.98763     -1.3228912e+08  1458.2896      1432.2815    
    616000   349.97402     -1.3228943e+08  1458.1802      1432.2957    
    617000   349.92106     -1.3228942e+08  1440.7921      1432.31      
    618000   349.95076     -1.3228947e+08  1439.8483      1432.3242    
    619000   349.95328     -1.3228925e+08  1430.0906      1432.3385    
    620000   349.98507     -1.3228882e+08  1437.0356      1432.3527    
    621000   350.04458     -1.3228951e+08  1434.8351      1432.367     
    622000   350.00692     -1.3228904e+08  1432.3372      1432.3812    
    623000   350.0199      -1.3228919e+08  1435.7136      1432.3954    
    624000   350.06886     -1.3228918e+08  1426.9624      1432.4097    
    625000   349.98501     -1.3228867e+08  1423.7565      1432.4239    
    626000   350.06929     -1.3228902e+08  1417.0513      1432.4382    
    627000   350.03794     -1.322889e+08   1429.798       1432.4524    
    628000   350.04235     -1.322891e+08   1424.5162      1432.4667    
    629000   350.0698      -1.3228895e+08  1413.7554      1432.4809    
    630000   350.02918     -1.3228921e+08  1403.5682      1432.4951    
    631000   350.03635     -1.3228903e+08  1397.0035      1432.5094    
    632000   349.97883     -1.3228873e+08  1401.339       1432.5236    
    633000   350.02872     -1.3228869e+08  1396.1663      1432.5379    
    634000   350.03549     -1.3228869e+08  1388.2401      1432.5521    
    635000   350.03781     -1.322887e+08   1390.2073      1432.5664    
    636000   349.99436     -1.3228866e+08  1386.0425      1432.5806    
    637000   350.05836     -1.3228883e+08  1393.8815      1432.5948    
    638000   350.06239     -1.3228899e+08  1386.6506      1432.6091    
    639000   349.94896     -1.3228865e+08  1389.9136      1432.6233    
    640000   350.06655     -1.32289e+08    1379.9079      1432.6376    
    641000   349.96289     -1.3228824e+08  1374.939       1432.6518    
    642000   350.03088     -1.3228881e+08  1366.3811      1432.666     
    643000   349.97459     -1.3228856e+08  1369.3879      1432.6803    
    644000   350.04743     -1.3228892e+08  1372.2797      1432.6945    
    645000   349.98508     -1.3228871e+08  1375.6252      1432.7088    
    646000   349.99043     -1.322889e+08   1367.9381      1432.723     
    647000   350.00348     -1.32289e+08    1364.7663      1432.7373    
    648000   349.99771     -1.322886e+08   1357.1334      1432.7515    
    649000   350.06453     -1.3228852e+08  1356.2897      1432.7657    
    650000   349.97671     -1.3228815e+08  1351.231       1432.78      
    651000   350.01591     -1.3228872e+08  1351.0196      1432.7942    
    652000   349.96397     -1.3228836e+08  1351.8019      1432.8085    
    653000   350.0019      -1.3228819e+08  1349.5681      1432.8227    
    654000   350.0149      -1.3228824e+08  1346.2003      1432.837     
    655000   350.01863     -1.3228816e+08  1338.4141      1432.8512    
    656000   350.033       -1.3228787e+08  1336.6441      1432.8654    
    657000   350.12898     -1.3228805e+08  1339.8133      1432.8797    
    658000   350.14745     -1.3228796e+08  1340.7704      1432.8939    
    659000   350.19357     -1.3228792e+08  1333.9148      1432.9082    
    660000   350.11521     -1.3228791e+08  1330.6045      1432.9224    
    661000   350.02671     -1.3228784e+08  1322.5303      1432.9367    
    662000   350.06422     -1.3228815e+08  1323.8007      1432.9509    
    663000   350.11225     -1.322881e+08   1324.2068      1432.9651    
    664000   350.06589     -1.3228792e+08  1323.8996      1432.9794    
    665000   350.04348     -1.3228795e+08  1319.599       1432.9936    
    666000   350.0592      -1.3228793e+08  1314.9442      1433.0079    
    667000   350.03578     -1.3228787e+08  1313.0307      1433.0221    
    668000   350.0095      -1.3228807e+08  1299.1495      1433.0363    
    669000   350.01345     -1.3228822e+08  1302.1403      1433.0506    
    670000   349.96987     -1.3228803e+08  1305.4252      1433.0648    
    671000   349.99224     -1.3228825e+08  1303.1223      1433.0791    
    672000   349.93835     -1.322883e+08   1291.3862      1433.0933    
    673000   349.94061     -1.3228811e+08  1287.9226      1433.1076    
    674000   349.98498     -1.3228819e+08  1282.9173      1433.1218    
    675000   349.98512     -1.3228799e+08  1281.8327      1433.136     
    676000   349.9765      -1.3228804e+08  1292.5848      1433.1503    
    677000   349.98971     -1.3228791e+08  1290.9381      1433.1645    
    678000   350.04756     -1.3228796e+08  1291.6757      1433.1788    
    679000   350.0224      -1.3228779e+08  1276.0447      1433.193     
    680000   350.01805     -1.3228774e+08  1265.3694      1433.2073    
    681000   350.01685     -1.3228796e+08  1259.0644      1433.2215    
    682000   349.96795     -1.3228733e+08  1262.4004      1433.2357    
    683000   350.03833     -1.3228741e+08  1276.3468      1433.25      
    684000   350.08621     -1.3228798e+08  1264.7537      1433.2642    
    685000   350.01632     -1.3228767e+08  1264.3349      1433.2785    
    686000   350.03535     -1.322876e+08   1254.0611      1433.2927    
    687000   350.07677     -1.3228778e+08  1250.5374      1433.307     
    688000   350.01589     -1.3228764e+08  1245.4307      1433.3212    
    689000   349.98579     -1.3228767e+08  1254.9237      1433.3354    
    690000   350.03366     -1.3228779e+08  1251.6497      1433.3497    
    691000   349.94315     -1.3228779e+08  1252.6248      1433.3639    
    692000   349.94787     -1.3228749e+08  1246.6719      1433.3782    
    693000   349.95634     -1.3228742e+08  1239.0049      1433.3924    
    694000   350.0733      -1.3228734e+08  1231.7011      1433.4067    
    695000   350.07365     -1.3228727e+08  1234.933       1433.4209    
    696000   350.00512     -1.3228699e+08  1232.0828      1433.4351    
    697000   350.02465     -1.3228709e+08  1233.1168      1433.4494    
    698000   350.05202     -1.3228764e+08  1231.8335      1433.4636    
    699000   349.95902     -1.3228724e+08  1222.1188      1433.4779    
    700000   349.92192     -1.3228763e+08  1214.8903      1433.4921    
    701000   349.96898     -1.3228752e+08  1207.4322      1433.5063    
    702000   349.96002     -1.3228721e+08  1218.2882      1433.5206    
    703000   350.0243      -1.3228723e+08  1217.8543      1433.5348    
    704000   350.02566     -1.3228735e+08  1219.411       1433.5491    
    705000   349.9847      -1.3228692e+08  1202.2362      1433.5633    
    706000   350.01243     -1.3228693e+08  1196.2799      1433.5776    
    707000   350.0067      -1.3228679e+08  1189.4381      1433.5918    
    708000   349.97623     -1.3228671e+08  1190.6598      1433.606     
    709000   350.02994     -1.3228705e+08  1187.6704      1433.6203    
    710000   350.07984     -1.3228703e+08  1194.6045      1433.6345    
    711000   350.05302     -1.3228691e+08  1203.1728      1433.6488    
    712000   349.99963     -1.3228712e+08  1198.6802      1433.663     
    713000   349.99321     -1.3228721e+08  1186.0821      1433.6773    
    714000   349.91066     -1.3228668e+08  1178.5639      1433.6915    
    715000   349.96459     -1.3228688e+08  1178.1977      1433.7057    
    716000   349.97213     -1.3228697e+08  1184.0351      1433.72      
    717000   349.99691     -1.3228679e+08  1173.6169      1433.7342    
    718000   350.04562     -1.3228651e+08  1169.1445      1433.7485    
    719000   350.02518     -1.3228646e+08  1155.4383      1433.7627    
    720000   349.99725     -1.322862e+08   1154.5285      1433.777     
    721000   350.04168     -1.3228659e+08  1161.8398      1433.7912    
    722000   350.09558     -1.3228713e+08  1172.6174      1433.8054    
    723000   349.95533     -1.3228653e+08  1179.2247      1433.8197    
    724000   349.98948     -1.3228663e+08  1170.4712      1433.8339    
    725000   350.0273      -1.3228681e+08  1157.4794      1433.8482    
    726000   349.99256     -1.3228671e+08  1149.758       1433.8624    
    727000   350.00741     -1.3228648e+08  1145.1224      1433.8766    
    728000   350.01737     -1.3228651e+08  1145.2819      1433.8909    
    729000   349.97054     -1.3228637e+08  1146.2795      1433.9051    
    730000   349.97404     -1.3228683e+08  1137.7109      1433.9194    
    731000   349.99726     -1.3228691e+08  1134.0594      1433.9336    
    732000   349.91218     -1.3228646e+08  1131.496       1433.9479    
    733000   349.96554     -1.3228633e+08  1139.5734      1433.9621    
    734000   350.01889     -1.3228647e+08  1136.1461      1433.9763    
    735000   349.98687     -1.322866e+08   1133.6356      1433.9906    
    736000   349.98665     -1.3228667e+08  1123.4285      1434.0048    
    737000   349.93033     -1.3228658e+08  1117.1699      1434.0191    
    738000   349.94996     -1.3228674e+08  1122.4431      1434.0333    
    739000   349.94599     -1.3228673e+08  1128.7991      1434.0476    
    740000   349.93546     -1.3228687e+08  1124.6628      1434.0618    
    741000   349.95405     -1.322869e+08   1114.0215      1434.076     
    742000   349.93378     -1.3228633e+08  1101.0098      1434.0903    
    743000   349.92615     -1.3228629e+08  1099.8131      1434.1045    
    744000   349.98637     -1.3228665e+08  1099.5436      1434.1188    
    745000   349.91584     -1.3228631e+08  1104.8729      1434.133     
    746000   350.04156     -1.322867e+08   1103.1351      1434.1473    
    747000   349.87735     -1.3228597e+08  1101.4631      1434.1615    
    748000   349.97669     -1.3228655e+08  1087.6929      1434.1757    
    749000   349.85815     -1.3228643e+08  1079.6955      1434.19      
    750000   349.98424     -1.3228635e+08  1087.275       1434.2042    
    751000   349.96136     -1.3228602e+08  1085.5453      1434.2185    
    752000   350.01992     -1.3228596e+08  1081.8901      1434.2327    
    753000   350.00564     -1.3228551e+08  1075.9343      1434.2469    
    754000   350.0729      -1.3228613e+08  1076.1747      1434.2612    
    755000   350.06888     -1.3228588e+08  1085.5667      1434.2754    
    756000   350.01983     -1.3228601e+08  1081.0186      1434.2897    
    757000   349.98037     -1.3228609e+08  1075.409       1434.3039    
    758000   349.98963     -1.3228576e+08  1063.1711      1434.3182    
    759000   350.03073     -1.3228604e+08  1059.3099      1434.3324    
    760000   349.98579     -1.3228569e+08  1065.8044      1434.3466    
    761000   349.9482      -1.3228576e+08  1064.8003      1434.3609    
    762000   349.96672     -1.3228597e+08  1056.779       1434.3751    
    763000   349.99661     -1.32286e+08    1052.6459      1434.3894    
    764000   350.05824     -1.3228624e+08  1054.1353      1434.4036    
    765000   350.02762     -1.3228588e+08  1050.3459      1434.4179    
    766000   350.00795     -1.3228601e+08  1045.3243      1434.4321    
    767000   349.98909     -1.3228568e+08  1046.6549      1434.4463    
    768000   350.02042     -1.3228576e+08  1049.0089      1434.4606    
    769000   350.11414     -1.3228586e+08  1033.4812      1434.4748    
    770000   350.03543     -1.3228565e+08  1017.9807      1434.4891    
    771000   349.98113     -1.3228544e+08  1016.373       1434.5033    
    772000   349.98783     -1.3228579e+08  1031.6438      1434.5176    
    773000   349.968       -1.3228568e+08  1035.0727      1434.5318    
    774000   349.99432     -1.3228565e+08  1026.6781      1434.546     
    775000   349.98926     -1.3228591e+08  1025.0578      1434.5603    
    776000   349.96964     -1.3228548e+08  1020.5475      1434.5745    
    777000   350.03263     -1.3228532e+08  1012.8651      1434.5888    
    778000   349.95943     -1.3228508e+08  1011.5147      1434.603     
    779000   349.98443     -1.3228507e+08  1007.1509      1434.6172    
    780000   350.02858     -1.3228514e+08  1014.8484      1434.6315    
    781000   350.0022      -1.3228513e+08  1007.3035      1434.6457    
    782000   350.06756     -1.3228505e+08  1008.0855      1434.66      
    783000   350.08038     -1.3228524e+08  997.69619      1434.6742    
    784000   350.07336     -1.3228516e+08  992.5929       1434.6885    
    785000   350.09036     -1.3228498e+08  986.75315      1434.7027    
    786000   350.05838     -1.3228455e+08  996.78425      1434.7169    
    787000   350.14046     -1.322848e+08   996.3284       1434.7312    
    788000   350.08112     -1.3228507e+08  989.30983      1434.7454    
    789000   350.03449     -1.3228494e+08  985.36336      1434.7597    
    790000   349.98726     -1.322847e+08   985.69517      1434.7739    
    791000   349.99932     -1.3228475e+08  982.32396      1434.7882    
    792000   350.02476     -1.3228509e+08  979.30398      1434.8024    
    793000   349.99157     -1.3228491e+08  968.91812      1434.8166    
    794000   349.95466     -1.3228496e+08  959.95202      1434.8309    
    795000   350.03717     -1.3228535e+08  968.94225      1434.8451    
    796000   350.04825     -1.3228481e+08  973.9065       1434.8594    
    797000   350.01531     -1.3228489e+08  967.04022      1434.8736    
    798000   350.05684     -1.3228493e+08  963.98165      1434.8879    
    799000   350.00096     -1.3228461e+08  954.44676      1434.9021    
    800000   349.95889     -1.3228472e+08  948.35744      1434.9163    
    801000   350.02999     -1.322846e+08   946.52829      1434.9306    
    802000   350.03699     -1.322845e+08   953.94354      1434.9448    
    803000   349.99425     -1.3228435e+08  956.75731      1434.9591    
    804000   350.07583     -1.3228512e+08  958.82593      1434.9733    
    805000   350.05743     -1.3228483e+08  949.817        1434.9876    
    806000   349.96861     -1.3228465e+08  943.45472      1435.0018    
    807000   350.08795     -1.3228495e+08  932.73135      1435.016     
    808000   350.07721     -1.3228471e+08  930.73615      1435.0303    
    809000   350.01975     -1.3228443e+08  931.83913      1435.0445    
    810000   350.02975     -1.3228454e+08  936.72469      1435.0588    
    811000   350.01108     -1.3228441e+08  933.18677      1435.073     
    812000   350.07924     -1.3228463e+08  922.98644      1435.0872    
    813000   350.03297     -1.3228422e+08  914.75257      1435.1015    
    814000   350.0672      -1.3228417e+08  919.47543      1435.1157    
    815000   350.00257     -1.3228383e+08  919.36412      1435.13      
    816000   350.04149     -1.3228433e+08  913.79248      1435.1442    
    817000   349.97755     -1.3228409e+08  908.89982      1435.1585    
    818000   349.95201     -1.3228418e+08  902.46906      1435.1727    
    819000   350.0386      -1.3228459e+08  906.64905      1435.1869    
    820000   350.01586     -1.3228461e+08  908.6562       1435.2012    
    821000   349.91167     -1.3228421e+08  905.94846      1435.2154    
    822000   349.94767     -1.3228426e+08  896.5334       1435.2297    
    823000   349.98254     -1.3228429e+08  894.88189      1435.2439    
    824000   349.98045     -1.3228417e+08  898.64372      1435.2582    
    825000   350.01284     -1.3228427e+08  898.35424      1435.2724    
    826000   349.98867     -1.3228459e+08  896.3586       1435.2866    
    827000   349.94295     -1.3228438e+08  883.71491      1435.3009    
    828000   349.93929     -1.3228438e+08  870.02614      1435.3151    
    829000   349.98454     -1.3228442e+08  865.42087      1435.3294    
    830000   350.04042     -1.3228392e+08  877.0351       1435.3436    
    831000   349.96907     -1.3228384e+08  882.36566      1435.3579    
    832000   349.99083     -1.3228399e+08  880.94467      1435.3721    
    833000   350.02256     -1.3228391e+08  871.2914       1435.3863    
    834000   350.0048      -1.3228392e+08  862.16372      1435.4006    
    835000   349.95558     -1.3228375e+08  859.91383      1435.4148    
    836000   350.02718     -1.3228375e+08  858.31033      1435.4291    
    837000   350.01419     -1.3228366e+08  857.37265      1435.4433    
    838000   350.03531     -1.3228395e+08  861.68954      1435.4575    
    839000   349.99121     -1.3228369e+08  859.60752      1435.4718    
    840000   350.04846     -1.3228362e+08  857.69515      1435.486     
    841000   350.03517     -1.3228343e+08  851.19889      1435.5003    
    842000   350.02004     -1.3228352e+08  841.62226      1435.5145    
    843000   350.01836     -1.3228337e+08  840.36056      1435.5288    
    844000   350.04851     -1.3228346e+08  837.73695      1435.543     
    845000   349.95913     -1.3228342e+08  846.00322      1435.5572    
    846000   350.07385     -1.3228376e+08  843.62046      1435.5715    
    847000   350.02024     -1.3228341e+08  835.6938       1435.5857    
    848000   350.00886     -1.3228336e+08  824.53612      1435.6       
    849000   349.99048     -1.3228357e+08  825.62463      1435.6142    
    850000   349.98976     -1.3228333e+08  816.05954      1435.6285    
    851000   350.01088     -1.3228338e+08  824.49576      1435.6427    
    852000   349.9211      -1.3228324e+08  814.52644      1435.6569    
    853000   349.97023     -1.3228313e+08  810.98635      1435.6712    
    854000   349.96872     -1.3228293e+08  807.89089      1435.6854    
    855000   349.97736     -1.3228293e+08  811.47874      1435.6997    
    856000   349.96004     -1.3228301e+08  824.77843      1435.7139    
    857000   349.92914     -1.3228315e+08  814.6142       1435.7282    
    858000   350.04435     -1.3228337e+08  806.76091      1435.7424    
    859000   349.9861      -1.3228268e+08  799.498        1435.7566    
    860000   350.01435     -1.3228249e+08  799.07787      1435.7709    
    861000   350.08282     -1.3228266e+08  800.49531      1435.7851    
    862000   350.01517     -1.3228271e+08  793.84258      1435.7994    
    863000   350.00303     -1.3228258e+08  793.51484      1435.8136    
    864000   349.98705     -1.3228317e+08  785.33431      1435.8278    
    865000   349.95429     -1.3228298e+08  781.02199      1435.8421    
    866000   349.96995     -1.3228345e+08  783.27931      1435.8563    
    867000   349.98839     -1.3228328e+08  793.38208      1435.8706    
    868000   350.00705     -1.3228308e+08  786.09786      1435.8848    
    869000   350.00413     -1.3228271e+08  776.14372      1435.8991    
    870000   349.9476      -1.3228261e+08  770.53711      1435.9133    
    871000   349.91497     -1.3228279e+08  772.65107      1435.9275    
    872000   350.03337     -1.3228288e+08  762.8591       1435.9418    
    873000   350.03678     -1.3228273e+08  763.73186      1435.956     
    874000   349.98763     -1.3228268e+08  759.96129      1435.9703    
    875000   350.00065     -1.3228274e+08  764.96684      1435.9845    
    876000   349.94612     -1.3228247e+08  760.00399      1435.9988    
    877000   350.02689     -1.3228247e+08  761.97138      1436.013     
    878000   350.01895     -1.3228261e+08  751.17186      1436.0272    
    879000   349.92993     -1.3228237e+08  749.37567      1436.0415    
    880000   349.95554     -1.3228275e+08  744.16593      1436.0557    
    881000   349.97173     -1.3228225e+08  743.67983      1436.07      
    882000   350.00566     -1.3228243e+08  747.20568      1436.0842    
    883000   349.98332     -1.3228243e+08  734.21618      1436.0985    
    884000   349.97782     -1.3228258e+08  730.91087      1436.1127    
    885000   349.97904     -1.3228254e+08  734.86079      1436.1269    
    886000   350.00578     -1.3228233e+08  738.91249      1436.1412    
    887000   349.91413     -1.3228224e+08  734.30527      1436.1554    
    888000   350.03688     -1.3228262e+08  730.70725      1436.1697    
    889000   349.9896      -1.3228221e+08  723.66654      1436.1839    
    890000   350.02087     -1.322823e+08   711.5655       1436.1982    
    891000   349.94182     -1.3228173e+08  713.78303      1436.2124    
    892000   349.95423     -1.3228215e+08  704.96211      1436.2266    
    893000   350.0061      -1.3228223e+08  706.49616      1436.2409    
    894000   349.98226     -1.3228222e+08  708.00901      1436.2551    
    895000   350.05808     -1.3228221e+08  706.64621      1436.2694    
    896000   350.01373     -1.3228182e+08  707.16806      1436.2836    
    897000   350.05634     -1.3228183e+08  702.41784      1436.2978    
    898000   349.99935     -1.322817e+08   698.48085      1436.3121    
    899000   349.99658     -1.3228204e+08  700.51289      1436.3263    
    900000   350.03491     -1.3228208e+08  702.26292      1436.3406    
    901000   350.04167     -1.3228201e+08  695.85086      1436.3548    
    902000   350.01643     -1.3228154e+08  697.0453       1436.3691    
    903000   350.0167      -1.3228147e+08  692.84146      1436.3833    
    904000   350.03529     -1.3228161e+08  690.9847       1436.3975    
    905000   350.0022      -1.3228135e+08  678.45209      1436.4118    
    906000   349.99366     -1.3228175e+08  673.87287      1436.426     
    907000   349.98402     -1.3228175e+08  669.67396      1436.4403    
    908000   349.93062     -1.3228156e+08  671.14482      1436.4545    
    909000   349.9878      -1.3228167e+08  677.96063      1436.4688    
    910000   349.97702     -1.3228186e+08  668.92522      1436.483     
    911000   349.9599      -1.3228159e+08  661.62914      1436.4972    
    912000   349.86007     -1.3228156e+08  661.58695      1436.5115    
    913000   349.94809     -1.3228195e+08  653.62598      1436.5257    
    914000   350.01111     -1.3228169e+08  660.37715      1436.54      
    915000   350.01414     -1.3228169e+08  665.82354      1436.5542    
    916000   350.03422     -1.3228154e+08  667.38006      1436.5685    
    917000   349.95805     -1.3228139e+08  655.22832      1436.5827    
    918000   349.96555     -1.3228121e+08  641.15231      1436.5969    
    919000   350.00061     -1.3228136e+08  644.27832      1436.6112    
    920000   350.01951     -1.3228148e+08  644.46971      1436.6254    
    921000   350.00078     -1.3228139e+08  649.12213      1436.6397    
    922000   350.00135     -1.3228103e+08  642.97708      1436.6539    
    923000   350.00791     -1.3228119e+08  636.45088      1436.6681    
    924000   349.97648     -1.3228137e+08  621.87997      1436.6824    
    925000   350.09348     -1.3228163e+08  622.62866      1436.6966    
    926000   349.97566     -1.3228105e+08  621.01565      1436.7109    
    927000   350.01896     -1.3228114e+08  621.56609      1436.7251    
    928000   350.07656     -1.3228164e+08  618.42781      1436.7394    
    929000   349.97911     -1.3228105e+08  631.27331      1436.7536    
    930000   350.0358      -1.322808e+08   618.43615      1436.7678    
    931000   349.99134     -1.3228117e+08  616.6358       1436.7821    
    932000   349.97632     -1.3228109e+08  597.97501      1436.7963    
    933000   349.91613     -1.3228117e+08  597.55032      1436.8106    
    934000   349.98292     -1.3228127e+08  597.45681      1436.8248    
    935000   349.96187     -1.3228107e+08  598.83463      1436.8391    
    936000   349.99161     -1.3228095e+08  596.74138      1436.8533    
    937000   349.96607     -1.3228066e+08  599.70749      1436.8675    
    938000   350.03605     -1.3228071e+08  601.56281      1436.8818    
    939000   350.0027      -1.3228075e+08  589.82811      1436.896     
    940000   349.95887     -1.3228104e+08  600.30191      1436.9103    
    941000   349.9854      -1.3228074e+08  592.01067      1436.9245    
    942000   350.01536     -1.3228071e+08  585.92689      1436.9388    
    943000   349.91128     -1.322805e+08   577.90782      1436.953     
    944000   349.91852     -1.3228032e+08  565.17198      1436.9672    
    945000   349.90163     -1.3228026e+08  574.61118      1436.9815    
    946000   350.04632     -1.3228068e+08  578.81956      1436.9957    
    947000   349.97315     -1.3228068e+08  572.2365       1437.01      
    948000   350.01977     -1.3228027e+08  575.89372      1437.0242    
    949000   350.02333     -1.3228046e+08  565.1741       1437.0384    
    950000   349.98627     -1.3228039e+08  565.46286      1437.0527    
    951000   350.05917     -1.3228042e+08  556.03038      1437.0669    
    952000   350.03941     -1.3227981e+08  558.53316      1437.0812    
    953000   350.03872     -1.3227987e+08  557.4841       1437.0954    
    954000   350.01212     -1.3227972e+08  557.09942      1437.1097    
    955000   350.00318     -1.322799e+08   553.39865      1437.1239    
    956000   350.06484     -1.3228027e+08  538.98801      1437.1381    
    957000   349.96576     -1.3228024e+08  539.78167      1437.1524    
    958000   349.94996     -1.322802e+08   541.25715      1437.1666    
    959000   349.97908     -1.322805e+08   538.84314      1437.1809    
    960000   349.93454     -1.3227994e+08  549.63999      1437.1951    
    961000   349.96442     -1.3228011e+08  540.64272      1437.2094    
    962000   349.94703     -1.3228002e+08  541.15495      1437.2236    
    963000   349.9604      -1.3227987e+08  525.47         1437.2378    
    964000   349.99915     -1.3228014e+08  520.90125      1437.2521    
    965000   350.02278     -1.3228023e+08  521.89687      1437.2663    
    966000   349.96199     -1.3227997e+08  523.34853      1437.2806    
    967000   350.02406     -1.3228022e+08  524.68438      1437.2948    
    968000   350.01917     -1.3227986e+08  514.67522      1437.3091    
    969000   349.98966     -1.3227945e+08  505.9295       1437.3233    
    970000   350.07018     -1.322798e+08   514.4118       1437.3375    
    971000   350.01293     -1.3227931e+08  515.66954      1437.3518    
    972000   350.04679     -1.3227978e+08  504.05407      1437.366     
    973000   349.99922     -1.3227941e+08  503.83881      1437.3803    
    974000   350.05551     -1.3227957e+08  503.88982      1437.3945    
    975000   350.00636     -1.3227961e+08  494.62953      1437.4087    
    976000   350.01101     -1.3227954e+08  500.2058       1437.423     
    977000   350.03322     -1.3227932e+08  502.2045       1437.4372    
    978000   350.06156     -1.322796e+08   497.27229      1437.4515    
    979000   350.04857     -1.3227924e+08  489.8472       1437.4657    
    980000   350.02366     -1.3227893e+08  484.32024      1437.48      
    981000   350.11571     -1.3227949e+08  478.51809      1437.4942    
    982000   350.0482      -1.3227923e+08  484.10854      1437.5084    
    983000   350.00515     -1.3227917e+08  484.56384      1437.5227    
    984000   350.03792     -1.3227939e+08  479.73663      1437.5369    
    985000   349.94241     -1.3227913e+08  481.56177      1437.5512    
    986000   350.02466     -1.3227953e+08  474.59078      1437.5654    
    987000   350.00687     -1.3227918e+08  470.51693      1437.5797    
    988000   350.06488     -1.3227941e+08  465.73351      1437.5939    
    989000   350.02768     -1.3227903e+08  467.87231      1437.6081    
    990000   350.03514     -1.3227907e+08  465.48849      1437.6224    
    991000   350.01896     -1.3227905e+08  468.09883      1437.6366    
    992000   350.03227     -1.3227867e+08  452.15736      1437.6509    
    993000   350.00528     -1.322788e+08   449.94876      1437.6651    
    994000   350.03168     -1.322787e+08   452.45486      1437.6794    
    995000   349.96647     -1.3227896e+08  449.16101      1437.6936    
    996000   350.04927     -1.3227893e+08  450.73514      1437.7078    
    997000   349.9886      -1.322788e+08   453.28155      1437.7221    
    998000   350.0299      -1.3227894e+08  445.42884      1437.7363    
    999000   350.0374      -1.3227863e+08  445.65225      1437.7506    
   1000000   349.99442     -1.3227857e+08  441.3561       1437.7648    
   1001000   350.04955     -1.3227908e+08  437.36169      1437.7791    
   1002000   349.9871      -1.3227861e+08  433.15264      1437.7933    
   1003000   350.01803     -1.3227872e+08  430.43809      1437.8075    
   1004000   349.99075     -1.3227856e+08  429.53002      1437.8218    
   1005000   350.01809     -1.3227849e+08  421.83776      1437.836     
   1006000   350.05518     -1.3227851e+08  422.11545      1437.8503    
   1007000   349.93202     -1.3227859e+08  415.54072      1437.8645    
   1008000   349.96198     -1.3227861e+08  423.42673      1437.8787    
   1009000   349.9464      -1.3227887e+08  421.33971      1437.893     
   1010000   349.98741     -1.3227873e+08  413.63654      1437.9072    
   1011000   349.94414     -1.3227856e+08  395.90143      1437.9215    
   1012000   349.98092     -1.3227821e+08  391.66724      1437.9357    
   1013000   349.96764     -1.3227836e+08  392.22489      1437.95      
   1014000   349.97741     -1.3227849e+08  404.96675      1437.9642    
   1015000   349.9547      -1.322781e+08   403.68         1437.9784    
   1016000   349.95888     -1.3227805e+08  402.29208      1437.9927    
   1017000   349.96033     -1.3227846e+08  389.31587      1438.0069    
   1018000   349.93309     -1.3227821e+08  396.45276      1438.0212    
   1019000   350.00974     -1.3227835e+08  392.03911      1438.0354    
   1020000   350.00552     -1.3227807e+08  395.27579      1438.0497    
   1021000   350.00312     -1.3227795e+08  388.61531      1438.0639    
   1022000   349.96303     -1.3227777e+08  379.20182      1438.0781    
   1023000   349.90748     -1.3227804e+08  365.10907      1438.0924    
   1024000   349.96058     -1.3227786e+08  362.17543      1438.1066    
   1025000   350.04246     -1.3227805e+08  360.89919      1438.1209    
   1026000   350.01529     -1.3227784e+08  365.16316      1438.1351    
   1027000   349.9825      -1.3227777e+08  370.55924      1438.1494    
   1028000   350.00161     -1.3227796e+08  367.53636      1438.1636    
   1029000   349.93332     -1.3227761e+08  369.60804      1438.1778    
   1030000   350.01658     -1.3227785e+08  373.77402      1438.1921    
   1031000   349.9862      -1.3227771e+08  351.25766      1438.2063    
   1032000   350.07023     -1.3227786e+08  350.37245      1438.2206    
   1033000   350.00965     -1.3227746e+08  340.28379      1438.2348    
   1034000   349.99699     -1.322774e+08   343.44364      1438.249     
   1035000   350.02263     -1.3227738e+08  337.24032      1438.2633    
   1036000   350.01524     -1.3227734e+08  340.74531      1438.2775    
[...]
   3940000   349.98085     -1.3206187e+08 -5690.6065      1479.6373    
   3941000   349.97095     -1.3206202e+08 -5694.7238      1479.6515    
   3942000   349.99612     -1.3206221e+08 -5704.7713      1479.6658    
   3943000   350.02399     -1.3206177e+08 -5698.7711      1479.68      
   3944000   350.06337     -1.3206171e+08 -5694.9396      1479.6943    
   3945000   350.02803     -1.3206133e+08 -5693.9646      1479.7085    
   3946000   350.02311     -1.3206072e+08 -5701.6724      1479.7228    
   3947000   349.94392     -1.3206066e+08 -5707.0873      1479.737     
   3948000   350.01135     -1.3206082e+08 -5707.6939      1479.7512    
   3949000   349.98038     -1.3206032e+08 -5705.5485      1479.7655    
   3950000   349.96847     -1.3206061e+08 -5713.8036      1479.7797    
   3951000   349.96974     -1.3206067e+08 -5718.5977      1479.794     
   3952000   350.00447     -1.3206063e+08 -5720.7214      1479.8082    
   3953000   350.0033      -1.3206036e+08 -5707.5348      1479.8225    
   3954000   350.03431     -1.3206093e+08 -5708.1116      1479.8367    
   3955000   349.97981     -1.3206006e+08 -5705.6902      1479.8509    
   3956000   350.06685     -1.3206019e+08 -5717.625       1479.8652    
   3957000   350.02864     -1.3206018e+08 -5724.256       1479.8794    
   3958000   349.96706     -1.3206004e+08 -5737.4223      1479.8937    
   3959000   349.93922     -1.320598e+08  -5731.0242      1479.9079    
   3960000   349.91473     -1.3205982e+08 -5726.2549      1479.9222    
   3961000   349.96148     -1.3205949e+08 -5719.1683      1479.9364    
   3962000   350.00212     -1.320594e+08  -5729.3472      1479.9506    
   3963000   349.93961     -1.3205927e+08 -5734.9439      1479.9649    
   3964000   349.99364     -1.3205926e+08 -5741.0248      1479.9791    
   3965000   350.00191     -1.3205879e+08 -5727.7681      1479.9934    
   3966000   350.00674     -1.3205869e+08 -5733.567       1480.0076    
   3967000   350.04899     -1.320587e+08  -5747.0355      1480.0218    
   3968000   349.95391     -1.3205843e+08 -5752.3099      1480.0361    
   3969000   349.97432     -1.3205839e+08 -5745.4799      1480.0503    
   3970000   350.03137     -1.3205876e+08 -5740.0754      1480.0646    
   3971000   350.04332     -1.3205864e+08 -5731.1815      1480.0788    
   3972000   349.92886     -1.3205804e+08 -5736.2855      1480.0931    
   3973000   349.97994     -1.3205818e+08 -5738.4232      1480.1073    
   3974000   350.01359     -1.3205838e+08 -5742.3177      1480.1215    
   3975000   349.95326     -1.3205827e+08 -5741.0658      1480.1358    
   3976000   350.00823     -1.3205816e+08 -5749.7764      1480.15      
   3977000   349.97235     -1.3205763e+08 -5754.0729      1480.1643    
   3978000   350.1065      -1.3205787e+08 -5759.299       1480.1785    
   3979000   349.97035     -1.3205766e+08 -5758.7002      1480.1928    
   3980000   350.00771     -1.3205749e+08 -5750.4669      1480.207     
   3981000   349.90628     -1.3205721e+08 -5757.0968      1480.2212    
   3982000   349.99127     -1.3205704e+08 -5763.0595      1480.2355    
   3983000   350.06403     -1.3205685e+08 -5770.6643      1480.2497    
   3984000   349.92876     -1.3205709e+08 -5761.4905      1480.264     
   3985000   349.96782     -1.3205714e+08 -5761.1836      1480.2782    
   3986000   349.94375     -1.3205702e+08 -5764.5104      1480.2925    
   3987000   349.97247     -1.3205686e+08 -5782.367       1480.3067    
   3988000   350.01328     -1.320564e+08  -5778.9871      1480.3209    
   3989000   350.00325     -1.320563e+08  -5776.5044      1480.3352    
   3990000   350.04874     -1.3205678e+08 -5762.7844      1480.3494    
   3991000   349.97177     -1.3205593e+08 -5768.9384      1480.3637    
   3992000   349.90779     -1.3205595e+08 -5777.4438      1480.3779    
   3993000   350.01101     -1.3205615e+08 -5782.2897      1480.3921    
   3994000   349.99178     -1.3205584e+08 -5781.0228      1480.4064    
   3995000   349.99306     -1.3205559e+08 -5782.4941      1480.4206    
   3996000   350.01283     -1.320555e+08  -5783.6661      1480.4349    
   3997000   350.00869     -1.3205519e+08 -5776.8107      1480.4491    
   3998000   350.02461     -1.3205545e+08 -5775.5784      1480.4634    
   3999000   349.9978      -1.3205559e+08 -5782.3727      1480.4776    
   4000000   349.9883      -1.3205536e+08 -5784.6729      1480.4918    
   4001000   349.9735      -1.3205515e+08 -5795.6283      1480.5061    
   4002000   350.03662     -1.3205486e+08 -5793.655       1480.5203    
   4003000   350.04183     -1.3205455e+08 -5797.1424      1480.5346    
   4004000   349.96518     -1.3205438e+08 -5800.874       1480.5488    
   4005000   350.02382     -1.3205457e+08 -5795.8979      1480.5631    
   4006000   349.90775     -1.3205433e+08 -5804.6864      1480.5773    
   4007000   349.86708     -1.3205446e+08 -5800.4466      1480.5915    
   4008000   349.99234     -1.3205433e+08 -5808.3933      1480.6058    
   4009000   350.06226     -1.3205383e+08 -5809.5777      1480.62      
   4010000   350.0419      -1.3205398e+08 -5816.1875      1480.6343    
   4011000   350.03413     -1.3205378e+08 -5810.7458      1480.6485    
   4012000   349.98839     -1.3205365e+08 -5808.9761      1480.6628    
   4013000   349.95764     -1.3205345e+08 -5801.7745      1480.677     
   4014000   349.92334     -1.3205368e+08 -5810.2192      1480.6912    
   4015000   349.97205     -1.3205334e+08 -5810.2345      1480.7055    
   4016000   350.02294     -1.3205367e+08 -5822.1939      1480.7197    
   4017000   349.98895     -1.3205342e+08 -5810.2131      1480.734     
   4018000   349.93886     -1.3205312e+08 -5820.7478      1480.7482    
   4019000   349.97849     -1.3205294e+08 -5808.7272      1480.7625    
   4020000   349.99643     -1.3205322e+08 -5817.4967      1480.7767    
   4021000   349.95965     -1.3205271e+08 -5810.5355      1480.7909    
   4022000   350.02129     -1.3205277e+08 -5817.4092      1480.8052    
   4023000   350.04393     -1.3205279e+08 -5820.8492      1480.8194    
   4024000   349.99548     -1.3205281e+08 -5829.0272      1480.8337    
   4025000   349.85683     -1.320526e+08  -5831.4198      1480.8479    
   4026000   349.92524     -1.3205269e+08 -5831.6062      1480.8621    
   4027000   349.98755     -1.3205244e+08 -5831.0533      1480.8764    
   4028000   350.01497     -1.3205225e+08 -5823.9383      1480.8906    
   4029000   350.01692     -1.3205216e+08 -5834.4974      1480.9049    
   4030000   349.99976     -1.3205193e+08 -5840.686       1480.9191    
   4031000   349.98509     -1.3205173e+08 -5843.5784      1480.9334    
   4032000   349.95496     -1.3205171e+08 -5842.5267      1480.9476    
   4033000   349.93845     -1.3205141e+08 -5836.9052      1480.9618    
   4034000   349.98225     -1.3205143e+08 -5838.6339      1480.9761    
   4035000   350.03292     -1.3205137e+08 -5841.6073      1480.9903    
   4036000   350.02796     -1.3205075e+08 -5843.2446      1481.0046    
   4037000   350.06287     -1.3205096e+08 -5844.0959      1481.0188    
   4038000   349.96518     -1.3205076e+08 -5842.8497      1481.0331    
   4039000   350.02266     -1.3205083e+08 -5840.9034      1481.0473    
   4040000   349.97778     -1.3205029e+08 -5847.3447      1481.0615    
   4041000   349.99829     -1.3205036e+08 -5852.4935      1481.0758    
   4042000   350.04737     -1.3205036e+08 -5854.4103      1481.09      
   4043000   349.98748     -1.3205e+08    -5843.3475      1481.1043    
   4044000   350.05599     -1.3204995e+08 -5850.4289      1481.1185    
   4045000   349.99633     -1.3204941e+08 -5851.7874      1481.1328    
   4046000   350.03397     -1.3204978e+08 -5858.958       1481.147     
   4047000   349.99807     -1.3204954e+08 -5863.1984      1481.1612    
   4048000   350.07314     -1.3204941e+08 -5861.345       1481.1755    
   4049000   349.98753     -1.3204911e+08 -5856.8607      1481.1897    
   4050000   350.09656     -1.3204945e+08 -5862.0207      1481.204     
   4051000   350.02572     -1.3204978e+08 -5877.2589      1481.2182    
   4052000   349.9717      -1.3204917e+08 -5882.5795      1481.2324    
   4053000   349.94273     -1.3204884e+08 -5880.3674      1481.2467    
   4054000   349.96726     -1.320489e+08  -5876.6396      1481.2609    
   4055000   349.98957     -1.3204849e+08 -5866.6713      1481.2752    
   4056000   350.041       -1.3204876e+08 -5870.7884      1481.2894    
   4057000   349.97596     -1.3204855e+08 -5868.701       1481.3037    
   4058000   349.98454     -1.3204827e+08 -5875.4168      1481.3179    
   4059000   350.05954     -1.3204866e+08 -5879.3912      1481.3321    
   4060000   350.05753     -1.3204833e+08 -5873.1785      1481.3464    
   4061000   350.03051     -1.3204803e+08 -5877.3123      1481.3606    
   4062000   350.0789      -1.3204832e+08 -5882.4311      1481.3749    
   4063000   349.96138     -1.3204766e+08 -5892.0373      1481.3891    
   4064000   350.03414     -1.3204772e+08 -5888.7688      1481.4034    
   4065000   350.07268     -1.3204776e+08 -5896.6703      1481.4176    
   4066000   350.06955     -1.3204771e+08 -5887.0315      1481.4318    
   4067000   349.94332     -1.3204789e+08 -5889.2738      1481.4461    
   4068000   349.94635     -1.3204735e+08 -5881.554       1481.4603    
   4069000   350.01768     -1.3204776e+08 -5886.0313      1481.4746    
   4070000   349.89353     -1.3204735e+08 -5896.3047      1481.4888    
   4071000   349.98203     -1.3204767e+08 -5913.0992      1481.5031    
   4072000   349.95648     -1.3204705e+08 -5908.5548      1481.5173    
   4073000   349.9913      -1.3204734e+08 -5900.741       1481.5315    
   4074000   349.9701      -1.3204764e+08 -5893.8917      1481.5458    
   4075000   349.88737     -1.3204734e+08 -5888.845       1481.56      
   4076000   349.94495     -1.3204706e+08 -5895.2526      1481.5743    
   4077000   349.93913     -1.3204664e+08 -5899.0678      1481.5885    
   4078000   349.97504     -1.3204658e+08 -5904.5695      1481.6027    
   4079000   350.03753     -1.3204626e+08 -5904.0049      1481.617     
   4080000   350.04015     -1.3204616e+08 -5916.6393      1481.6312    
   4081000   349.97928     -1.3204604e+08 -5911.3903      1481.6455    
   4082000   349.946       -1.3204605e+08 -5906.5852      1481.6597    
   4083000   350.01721     -1.3204624e+08 -5907.7421      1481.674     
   4084000   350.00746     -1.3204611e+08 -5911.2738      1481.6882    
   4085000   349.92552     -1.3204585e+08 -5909.2466      1481.7024    
   4086000   350.01123     -1.320455e+08  -5913.3036      1481.7167    
   4087000   349.9809      -1.3204501e+08 -5928.7713      1481.7309    
   4088000   350.04057     -1.3204504e+08 -5930.4135      1481.7452    
   4089000   350.04619     -1.3204494e+08 -5930.7594      1481.7594    
   4090000   349.98633     -1.3204482e+08 -5925.6371      1481.7737    
   4091000   349.98851     -1.3204515e+08 -5927.5         1481.7879    
   4092000   350.01046     -1.3204504e+08 -5932.0056      1481.8021    
   4093000   350.00413     -1.3204439e+08 -5930.4076      1481.8164    
   4094000   350.04213     -1.3204414e+08 -5928.7306      1481.8306    
   4095000   350.01606     -1.3204394e+08 -5929.0223      1481.8449    
   4096000   350.13237     -1.3204393e+08 -5934.6788      1481.8591    
   4097000   350.13304     -1.320442e+08  -5925.5395      1481.8734    
   4098000   350.04816     -1.3204345e+08 -5928.4121      1481.8876    
   4099000   350.23716     -1.3204376e+08 -5934.9047      1481.9018    
   4100000   350.14375     -1.3204365e+08 -5942.7195      1481.9161    
   4101000   350.05156     -1.320434e+08  -5944.3671      1481.9303    
   4102000   350.00776     -1.3204325e+08 -5957.2167      1481.9446    
   4103000   350.04946     -1.320435e+08  -5953.2988      1481.9588    
   4104000   350.03291     -1.3204342e+08 -5946.4791      1481.973     
   4105000   350.0445      -1.3204335e+08 -5940.3308      1481.9873    
   4106000   350.00816     -1.3204305e+08 -5949.8433      1482.0015    
   4107000   350.02601     -1.3204317e+08 -5950.1859      1482.0158    
   4108000   350.05903     -1.3204288e+08 -5947.2517      1482.03      
   4109000   350.01899     -1.3204278e+08 -5952.2558      1482.0443    
   4110000   350.00899     -1.3204271e+08 -5952.3737      1482.0585    
   4111000   350.08681     -1.3204249e+08 -5949.1989      1482.0727    
   4112000   350.01338     -1.3204234e+08 -5956.4769      1482.087     
   4113000   350.09589     -1.3204239e+08 -5954.5121      1482.1012    
   4114000   350.05084     -1.3204215e+08 -5968.4051      1482.1155    
   4115000   349.9954      -1.3204211e+08 -5971.7338      1482.1297    
   4116000   349.94985     -1.3204205e+08 -5974.4507      1482.144     
   4117000   349.9465      -1.3204217e+08 -5965.2979      1482.1582    
   4118000   349.99557     -1.3204202e+08 -5959.3748      1482.1724    
   4119000   350.03128     -1.320421e+08  -5963.5985      1482.1867    
   4120000   349.91964     -1.3204189e+08 -5975.9611      1482.2009    
   4121000   349.99559     -1.3204204e+08 -5982.232       1482.2152    
   4122000   350.01151     -1.3204161e+08 -5979.1959      1482.2294    
   4123000   350.02288     -1.3204179e+08 -5982.1906      1482.2437    
   4124000   349.97066     -1.3204122e+08 -5977.5758      1482.2579    
   4125000   350.0378      -1.3204125e+08 -5976.5039      1482.2721    
   4126000   350.00067     -1.32041e+08   -5976.3742      1482.2864    
   4127000   349.99917     -1.3204098e+08 -5976.7232      1482.3006    
   4128000   349.98036     -1.3204089e+08 -5981.7961      1482.3149    
   4129000   349.98237     -1.3204077e+08 -5984.1299      1482.3291    
   4130000   349.92823     -1.3204058e+08 -5987.6764      1482.3434    
   4131000   349.95123     -1.3204066e+08 -5984.2056      1482.3576    
   4132000   349.92989     -1.3204046e+08 -5979.8094      1482.3718    
   4133000   349.9598      -1.3204049e+08 -5977.9356      1482.3861    
   4134000   349.9824      -1.3204008e+08 -5993.9519      1482.4003    
   4135000   349.97036     -1.3204003e+08 -6000.2639      1482.4146    
   4136000   349.9351      -1.3203996e+08 -6005.4633      1482.4288    
   4137000   350.01586     -1.3203984e+08 -6007.1458      1482.443     
   4138000   350.03281     -1.3203979e+08 -5999.1988      1482.4573    
   4139000   350.01545     -1.3203969e+08 -6003.4897      1482.4715    
   4140000   349.9694      -1.320391e+08  -6006.5785      1482.4858    
   4141000   350.03879     -1.3203911e+08 -6008.7869      1482.5       
   4142000   350.04406     -1.3203961e+08 -6013.4734      1482.5143    
   4143000   349.97593     -1.3203926e+08 -6007.4533      1482.5285    
   4144000   349.92032     -1.3203917e+08 -6001.2128      1482.5427    
   4145000   349.89981     -1.3203934e+08 -5999.3823      1482.557     
   4146000   350.00664     -1.320391e+08  -5999.192       1482.5712    
   4147000   350.03079     -1.3203876e+08 -6000.0443      1482.5855    
   4148000   349.98082     -1.3203875e+08 -6018.0418      1482.5997    
   4149000   349.99139     -1.3203846e+08 -6026.5673      1482.614     
   4150000   349.9899      -1.3203846e+08 -6022.8601      1482.6282    
   4151000   350.02926     -1.3203821e+08 -6022.1503      1482.6424    
   4152000   349.95731     -1.3203769e+08 -6016.4654      1482.6567    
   4153000   350.0036      -1.3203767e+08 -6021.5524      1482.6709    
   4154000   350.04758     -1.3203797e+08 -6021.2882      1482.6852    
   4155000   349.97267     -1.3203749e+08 -6033.3581      1482.6994    
   4156000   349.98076     -1.3203744e+08 -6029.1868      1482.7137    
   4157000   350.00202     -1.320374e+08  -6027.3025      1482.7279    
   4158000   349.98878     -1.3203721e+08 -6025.0933      1482.7421    
   4159000   350.01618     -1.3203702e+08 -6027.6021      1482.7564    
   4160000   350.03216     -1.3203682e+08 -6029.6429      1482.7706    
   4161000   350.02787     -1.3203678e+08 -6040.8353      1482.7849    
   4162000   350.05439     -1.320371e+08  -6038.3606      1482.7991    
   4163000   350.06318     -1.3203695e+08 -6036.1508      1482.8133    
   4164000   350.08193     -1.3203698e+08 -6029.9003      1482.8276    
   4165000   349.95862     -1.3203654e+08 -6030.3661      1482.8418    
   4166000   350.05002     -1.3203675e+08 -6024.5752      1482.8561    
   4167000   350.02041     -1.3203669e+08 -6033.8748      1482.8703    
   4168000   349.95601     -1.3203607e+08 -6046.0327      1482.8846    
   4169000   349.98571     -1.32036e+08   -6049.1319      1482.8988    
   4170000   350.02404     -1.3203582e+08 -6035.6494      1482.913     
   4171000   350.05442     -1.3203573e+08 -6042.8368      1482.9273    
   4172000   350.04421     -1.320356e+08  -6044.4348      1482.9415    
   4173000   350.03986     -1.320356e+08  -6057.8799      1482.9558    
   4174000   349.95973     -1.3203555e+08 -6053.3036      1482.97      
   4175000   350.05433     -1.3203556e+08 -6057.3884      1482.9843    
   4176000   349.99935     -1.3203546e+08 -6056.6991      1482.9985    
   4177000   350.04423     -1.3203546e+08 -6048.8104      1483.0127    
   4178000   350.00557     -1.3203504e+08 -6048.2465      1483.027     
   4179000   350.0069      -1.3203493e+08 -6054.9632      1483.0412    
   4180000   350.03298     -1.3203455e+08 -6062.1892      1483.0555    
   4181000   349.98832     -1.3203485e+08 -6070.435       1483.0697    
   4182000   350.00294     -1.3203469e+08 -6065.3536      1483.084     
   4183000   349.95486     -1.3203486e+08 -6065.7946      1483.0982    
   4184000   349.91874     -1.3203451e+08 -6063.2164      1483.1124    
   4185000   350.00648     -1.3203441e+08 -6060.5588      1483.1267    
   4186000   350.00576     -1.3203403e+08 -6071.0995      1483.1409    
   4187000   349.99013     -1.320341e+08  -6079.6541      1483.1552    
   4188000   350.01404     -1.3203427e+08 -6084.8477      1483.1694    
   4189000   349.94545     -1.3203382e+08 -6077.4917      1483.1836    
   4190000   350.06849     -1.3203387e+08 -6072.1011      1483.1979    
   4191000   349.94512     -1.3203329e+08 -6072.7801      1483.2121    
   4192000   350.06958     -1.3203318e+08 -6079.9902      1483.2264    
   4193000   350.04923     -1.3203306e+08 -6087.2272      1483.2406    
   4194000   350.02454     -1.3203329e+08 -6091.8704      1483.2549    
   4195000   350.03945     -1.3203338e+08 -6076.0951      1483.2691    
   4196000   350.0059      -1.3203313e+08 -6073.0221      1483.2833    
   4197000   350.02605     -1.3203281e+08 -6072.5772      1483.2976    
   4198000   350.06988     -1.3203276e+08 -6082.0661      1483.3118    
   4199000   350.06676     -1.3203273e+08 -6086.6269      1483.3261    
   4200000   350.03439     -1.3203258e+08 -6096.688       1483.3403    
   4201000   349.99973     -1.3203254e+08 -6089.071       1483.3546    
   4202000   349.968       -1.3203266e+08 -6091.9886      1483.3688    
   4203000   349.95085     -1.3203232e+08 -6092.2004      1483.383     
   4204000   349.97862     -1.3203241e+08 -6102.68        1483.3973    
   4205000   349.99756     -1.3203183e+08 -6098.2358      1483.4115    
   4206000   349.95915     -1.3203142e+08 -6094.5633      1483.4258    
   4207000   350.01939     -1.3203152e+08 -6095.4606      1483.44      
   4208000   350.05192     -1.3203179e+08 -6093.6667      1483.4543    
   4209000   349.99296     -1.3203139e+08 -6096.3386      1483.4685    
   4210000   350.03468     -1.3203149e+08 -6101.4616      1483.4827    
   4211000   349.98836     -1.3203109e+08 -6110.093       1483.497     
   4212000   350.00964     -1.3203124e+08 -6115.3764      1483.5112    
   4213000   350.00294     -1.320311e+08  -6114.3111      1483.5255    
   4214000   349.9939      -1.3203123e+08 -6108.7819      1483.5397    
   4215000   350.00368     -1.3203065e+08 -6109.1668      1483.5539    
   4216000   350.037       -1.3203023e+08 -6114.1444      1483.5682    
