LAMMPS (23 Jun 2022)
KOKKOS mode is enabled (src/KOKKOS/kokkos.cpp:105)
  will use up to 4 GPU(s) per node
  using 1 OpenMP thread(s) per MPI task
package kokkos
package kokkos neigh half newton off
#LAMMPS input file

# ------------------------ INITIALIZATION ----------------------------
processors    * * *
units         metal
dimension    3
boundary    p    p    p
atom_style   charge
atom_modify map array sort 0 1

#--------------------------- LAMMPS Data File--------------------------

read_data    relaxed_step.lmp #reset_relaxed.lmp # model_4.lmp # pre_strained.lmp # High_sep_Cu_45.lmp # Cu_111_FR_45_MIN.lmp
Reading data file ...
  orthogonal box = (-314.8477 -522.43942 600) to (1109.3869 540.14923 1100)
  4 by 4 by 2 MPI processor grid
  reading atoms ...
  37948320 atoms
  reading velocities ...
  37948320 velocities
  read_data CPU = 141.809 seconds
#read_dump   dump.min_1862000.lammpstrj 1862000 x y z vx vy vz
variable  temp equal 10
variable  temp_init equal ${temp}*2
variable  temp_init equal 10*2
variable  sratex equal 5e-6 # in 1/ps (0.5 strain after 10ns)
# ------------------------ FORCE FIELDS ------------------------------
pair_style    eam/alloy
pair_coeff    * * Cu01.eam.alloy.txt Cu # Cu

#------------------------- SETTINGS ---------------------------------

#change_box        all x scale 1.015 remap units box

compute csym all centro/atom fcc
#compute peratom all pe/atom

# compute stresses
#compute       sf all stress/atom NULL

#-------------For Lorentz Forces from QEq----------------------------
# Apply forces
#variable qfx atomfile input_fx_new.txt
#variable qfy atomfile input_fy_new.txt
#variable qfz atomfile input_fz_new.txt
#variable qe atom  -(x*v_qfx+y*v_qfy+z*v_qfz)

#fix force_q1 all addforce v_qfx v_qfy v_qfz energy v_qe
#fix_modify force_q1 energy yes

#delete_atoms group exclude
#fix freez hold setforce 0 0 0
#fix_modify force_q2 energy yes
thermo 1000
thermo_style custom step temp pe press lx
thermo_modify flush yes
#min_style fire
#minimize 0.0 1e-4 100000 100000
#--------Thermal Relax---------------------------
velocity all create ${temp_init} 100 rot no dist gaussian
velocity all create 20 100 rot no dist gaussian
timestep  0.002
fix 1 all langevin ${temp} ${temp} 5 100
fix 1 all langevin 10 ${temp} 5 100
fix 1 all langevin 10 10 5 100
fix ensemble all nve
run 50000
Neighbor list info ...
  update every 1 steps, delay 10 steps, check yes
  max neighbors/atom: 2000, page size: 100000
  master list distance cutoff = 7.506786
  ghost atom cutoff = 7.506786
  binsize = 7.506786, bins = 190 142 67
  2 neighbor lists, perpetual/occasional/extra = 1 1 0
  (1) pair eam/alloy/kk, perpetual
      attributes: half, newton off, kokkos_device
      pair build: half/bin/kk/device
      stencil: full/bin/3d
      bin: kk/device
  (2) compute centro/atom, occasional
      attributes: full, newton off
      pair build: full/bin/atomonly
      stencil: full/bin/3d
      bin: standard
Per MPI rank memory allocation (min/avg/max) = 419 | 460.3 | 502.1 Mbytes
   Step          Temp          PotEng         Press            Lx      
         0   20            -1.3404495e+08 -204.37505      1424.2346    
      1000   10.014676     -1.3399595e+08 -126.99755      1424.2346    
      2000   10.00054      -1.3399586e+08 -253.12177      1424.2346    
      3000   9.9982099     -1.3399584e+08 -361.2665       1424.2346    
      4000   9.9997984     -1.3399585e+08 -307.74597      1424.2346    
      5000   10.001027     -1.3399585e+08 -247.84435      1424.2346    
      6000   9.9990651     -1.3399585e+08 -192.16954      1424.2346    
      7000   9.9998091     -1.3399586e+08 -216.74265      1424.2346    
      8000   9.9965047     -1.3399584e+08 -249.17681      1424.2346    
      9000   9.997606      -1.3399585e+08 -280.93909      1424.2346    
     10000   10.001041     -1.3399584e+08 -274.24246      1424.2346    
     11000   9.9997487     -1.3399583e+08 -254.84406      1424.2346    
     12000   9.9997341     -1.3399583e+08 -234.89767      1424.2346    
     13000   10.000389     -1.3399583e+08 -233.61711      1424.2346    
     14000   9.9998008     -1.3399583e+08 -241.53887      1424.2346    
     15000   10.002127     -1.3399583e+08 -252.57667      1424.2346    
     16000   10.00056      -1.3399583e+08 -255.76546      1424.2346    
     17000   9.9988664     -1.3399583e+08 -251.58471      1424.2346    
     18000   9.9986458     -1.3399584e+08 -246.16036      1424.2346    
     19000   9.9991912     -1.3399583e+08 -244.28342      1424.2346    
     20000   10.001282     -1.3399583e+08 -245.52316      1424.2346    
     21000   10.000313     -1.3399583e+08 -249.21336      1424.2346    
     22000   10.000721     -1.3399583e+08 -249.52982      1424.2346    
     23000   10.001296     -1.3399583e+08 -250.21289      1424.2346    
     24000   9.9999772     -1.3399583e+08 -249.82192      1424.2346    
     25000   9.9996558     -1.3399583e+08 -248.37677      1424.2346    
     26000   10.00147      -1.3399584e+08 -249.21293      1424.2346    
     27000   10.00111      -1.3399584e+08 -250.60118      1424.2346    
     28000   10.000145     -1.3399584e+08 -250.18696      1424.2346    
     29000   9.9976447     -1.3399583e+08 -250.45338      1424.2346    
     30000   10.000232     -1.3399583e+08 -247.91959      1424.2346    
     31000   10.002092     -1.3399583e+08 -248.42125      1424.2346    
     32000   10.000811     -1.3399583e+08 -248.6485       1424.2346    
     33000   10.000813     -1.3399583e+08 -250.46848      1424.2346    
     34000   9.9995094     -1.3399583e+08 -249.29716      1424.2346    
     35000   10.000444     -1.3399584e+08 -250.04826      1424.2346    
     36000   10.000948     -1.3399584e+08 -248.88656      1424.2346    
     37000   9.9991025     -1.3399583e+08 -249.23664      1424.2346    
     38000   10.000699     -1.3399584e+08 -247.89652      1424.2346    
     39000   10.000229     -1.3399584e+08 -249.17191      1424.2346    
     40000   10.001882     -1.3399584e+08 -247.78726      1424.2346    
     41000   10.000031     -1.3399585e+08 -248.1744       1424.2346    
     42000   9.9981535     -1.3399584e+08 -247.8942       1424.2346    
     43000   9.9981657     -1.3399584e+08 -247.05014      1424.2346    
     44000   10.000062     -1.3399584e+08 -248.84078      1424.2346    
     45000   9.9987521     -1.3399583e+08 -248.98066      1424.2346    
     46000   9.9993383     -1.3399583e+08 -251.52775      1424.2346    
     47000   10.001356     -1.3399584e+08 -250.11972      1424.2346    
     48000   10.001223     -1.3399583e+08 -250.33895      1424.2346    
     49000   10.000431     -1.3399583e+08 -248.3231       1424.2346    
     50000   10.001605     -1.3399583e+08 -247.72809      1424.2346    
Loop time of 461.592 on 32 procs for 50000 steps with 37948320 atoms

Performance: 18.718 ns/day, 1.282 hours/ns, 108.321 timesteps/s
71.1% CPU use with 32 MPI tasks x 1 OpenMP threads

MPI task timing breakdown:
Section |  min time  |  avg time  |  max time  |%varavg| %total
---------------------------------------------------------------
Pair    | 172.4      | 172.76     | 173.35     |   1.5 | 37.43
Neigh   | 0          | 0          | 0          |   0.0 |  0.00
Comm    | 33.267     | 33.405     | 33.56      |   1.4 |  7.24
Output  | 0.010859   | 0.59812    | 0.95751    |  35.6 |  0.13
Modify  | 137        | 190.12     | 240.42     | 355.0 | 41.19
Other   |            | 64.72      |            |       | 14.02

Nlocal:    1.18588e+06 ave 1.50954e+06 max      850860 min
Histogram: 16 0 0 0 0 0 0 0 0 16
Nghost:         188480 ave      221723 max      154513 min
Histogram: 16 0 0 0 0 0 0 0 0 16
Neighs:    8.44889e+07 ave 1.07556e+08 max 6.06081e+07 min
Histogram: 16 0 0 0 0 0 0 0 0 16
FullNghs:            0 ave           0 max           0 min
Histogram: 32 0 0 0 0 0 0 0 0 0

Total # of neighbors = 2.703646e+09
Ave neighs/atom = 71.245473
Neighbor list builds = 0
Dangerous builds = 0
unfix ensemble
write_data ${temp}_relaxed_config.lmp
write_data 10_relaxed_config.lmp
System init for write_data ...
#unfix freez
######################################
## NVT Langevin ##
#variable a loop 50
#label loop

#variable Ti equal ${temp}+($a-1)*4
#variable Tf equal ${temp}+$a*4
#reset_ids
#change_box all x scale ${eps} remap units box
fix        2 all deform 1 x erate ${sratex} units box remap x
fix        2 all deform 1 x erate 5e-06 units box remap x
#fix 1 all langevin ${temp} ${temp} 5 98

# Write dump file
#dump        shear all custom 500000 dump.min_*.lammpstrj id x y z # vx vy vz

#dump        defect all custom 100 dump.defect_*.lammpstrj id x y z c_csym
#dump_modify defect thresh c_csym <= 10 thresh c_csym > 4

fix         ensemble all nve
run 5000000
Per MPI rank memory allocation (min/avg/max) = 419 | 460.3 | 502.1 Mbytes
   Step          Temp          PotEng         Press            Lx      
     50000   10.001605     -1.3399583e+08 -247.72809      1424.2346    
     51000   9.9974001     -1.3399584e+08 -255.1335       1424.2488    
     52000   9.9975266     -1.3399583e+08 -261.02749      1424.2631    
     53000   10.001364     -1.3399583e+08 -262.43291      1424.2773    
     54000   9.9987778     -1.3399582e+08 -263.2683       1424.2915    
     55000   10.000714     -1.3399582e+08 -265.18853      1424.3058    
     56000   10.002382     -1.3399583e+08 -267.62561      1424.32      
     57000   10.000569     -1.3399582e+08 -270.56943      1424.3343    
     58000   9.9982872     -1.3399581e+08 -274.32864      1424.3485    
     59000   9.9999563     -1.339958e+08  -278.43105      1424.3628    
     60000   10.002081     -1.339958e+08  -280.28334      1424.377     
     61000   10.001509     -1.339958e+08  -282.24669      1424.3912    
     62000   9.9990489     -1.3399579e+08 -283.93806      1424.4055    
     63000   9.9982257     -1.339958e+08  -286.36474      1424.4197    
     64000   9.9988457     -1.3399579e+08 -290.62071      1424.434     
     65000   10.000352     -1.3399579e+08 -292.80813      1424.4482    
     66000   9.9992484     -1.3399578e+08 -295.54403      1424.4625    
     67000   9.9985853     -1.3399578e+08 -298.98297      1424.4767    
     68000   10.000686     -1.3399579e+08 -302.17764      1424.4909    
     69000   9.9996008     -1.3399577e+08 -306.36849      1424.5052    
     70000   9.9999028     -1.3399576e+08 -308.85406      1424.5194    
     71000   10.000065     -1.3399577e+08 -308.60842      1424.5337    
     72000   9.9983409     -1.3399577e+08 -309.5084       1424.5479    
     73000   9.9992807     -1.3399577e+08 -313.24183      1424.5622    
     74000   9.9996827     -1.3399577e+08 -318.6271       1424.5764    
     75000   10.002156     -1.3399577e+08 -324.36316      1424.5906    
     76000   9.9994035     -1.3399576e+08 -327.95664      1424.6049    
     77000   9.9996921     -1.3399576e+08 -325.91902      1424.6191    
     78000   9.9983133     -1.3399574e+08 -327.78386      1424.6334    
     79000   10.000916     -1.3399575e+08 -329.40029      1424.6476    
     80000   9.9987396     -1.3399575e+08 -334.60686      1424.6618    
     81000   10.001647     -1.3399574e+08 -339.6813       1424.6761    
     82000   9.9986382     -1.3399573e+08 -343.20875      1424.6903    
     83000   10.00135      -1.3399574e+08 -343.61007      1424.7046    
     84000   10.002164     -1.3399574e+08 -345.19047      1424.7188    
     85000   10.000484     -1.3399572e+08 -348.80135      1424.7331    
     86000   10.001061     -1.3399572e+08 -351.19824      1424.7473    
     87000   10.003226     -1.3399572e+08 -354.16754      1424.7615    
     88000   10.001633     -1.3399571e+08 -357.85911      1424.7758    
     89000   10.001805     -1.3399571e+08 -359.43083      1424.79      
     90000   10.00121      -1.339957e+08  -363.10705      1424.8043    
     91000   10.001168     -1.3399569e+08 -364.63549      1424.8185    
     92000   10.001093     -1.3399569e+08 -369.21933      1424.8328    
     93000   10.00141      -1.3399569e+08 -369.99697      1424.847     
     94000   10.000426     -1.3399568e+08 -373.65445      1424.8612    
     95000   9.998305      -1.3399569e+08 -376.84315      1424.8755    
     96000   9.998708      -1.3399569e+08 -380.72623      1424.8897    
     97000   10.000215     -1.3399568e+08 -383.32659      1424.904     
     98000   10.000193     -1.3399568e+08 -384.04853      1424.9182    
     99000   9.9995015     -1.3399567e+08 -386.88161      1424.9325    
    100000   10.000847     -1.3399567e+08 -390.31082      1424.9467    
    101000   10.000609     -1.3399566e+08 -393.5239       1424.9609    
    102000   10.001641     -1.3399566e+08 -396.90475      1424.9752    
    103000   9.9996857     -1.3399565e+08 -399.76329      1424.9894    
    104000   10.00044      -1.3399565e+08 -402.65051      1425.0037    
    105000   10.002442     -1.3399564e+08 -403.94136      1425.0179    
    106000   10.001213     -1.3399564e+08 -408.1096       1425.0322    
    107000   9.9994701     -1.3399563e+08 -409.34423      1425.0464    
    108000   10.000891     -1.3399563e+08 -412.52558      1425.0606    
    109000   9.9991015     -1.3399563e+08 -416.19398      1425.0749    
    110000   9.9986595     -1.3399562e+08 -419.61369      1425.0891    
    111000   9.9982142     -1.3399563e+08 -422.61357      1425.1034    
    112000   9.9992259     -1.3399561e+08 -424.03392      1425.1176    
    113000   9.9995932     -1.3399561e+08 -426.06169      1425.1318    
    114000   9.9981051     -1.3399561e+08 -428.93493      1425.1461    
    115000   9.9995983     -1.3399561e+08 -431.55155      1425.1603    
    116000   9.999069      -1.3399559e+08 -435.05487      1425.1746    
    117000   9.9974335     -1.3399558e+08 -436.6377       1425.1888    
    118000   10.000905     -1.3399558e+08 -441.12087      1425.2031    
    119000   10.000815     -1.3399557e+08 -441.62628      1425.2173    
    120000   10.001983     -1.3399557e+08 -445.85815      1425.2315    
    121000   10.000491     -1.3399557e+08 -447.74476      1425.2458    
    122000   10.001362     -1.3399558e+08 -451.47067      1425.26      
    123000   9.997487      -1.3399556e+08 -454.33566      1425.2743    
    124000   9.998164      -1.3399556e+08 -457.64996      1425.2885    
    125000   9.9984569     -1.3399556e+08 -459.00051      1425.3028    
    126000   9.9980036     -1.3399554e+08 -461.65411      1425.317     
    127000   9.9999794     -1.3399554e+08 -464.56241      1425.3312    
    128000   10.000078     -1.3399553e+08 -468.92844      1425.3455    
    129000   10.000175     -1.3399554e+08 -469.78968      1425.3597    
    130000   9.9999901     -1.3399553e+08 -472.53897      1425.374     
    131000   9.9964179     -1.3399552e+08 -475.43622      1425.3882    
    132000   9.9980446     -1.3399552e+08 -480.37513      1425.4025    
    133000   9.9990527     -1.3399551e+08 -481.84812      1425.4167    
    134000   9.9984891     -1.339955e+08  -483.7942       1425.4309    
    135000   10.000229     -1.339955e+08  -486.21599      1425.4452    
    136000   9.9970139     -1.3399549e+08 -491.02938      1425.4594    
    137000   9.9985234     -1.3399548e+08 -495.02803      1425.4737    
    138000   10.000464     -1.3399549e+08 -497.80664      1425.4879    
    139000   9.9999978     -1.3399549e+08 -498.53986      1425.5021    
    140000   9.9980945     -1.3399549e+08 -500.65727      1425.5164    
    141000   9.9994163     -1.3399547e+08 -501.59875      1425.5306    
    142000   9.9989186     -1.3399546e+08 -504.72737      1425.5449    
    143000   10.000668     -1.3399546e+08 -508.47157      1425.5591    
    144000   9.9998966     -1.3399545e+08 -512.44455      1425.5734    
    145000   9.9981486     -1.3399544e+08 -514.31213      1425.5876    
    146000   9.9983296     -1.3399544e+08 -518.33783      1425.6018    
    147000   10.000953     -1.3399543e+08 -520.03671      1425.6161    
    148000   9.9985405     -1.3399543e+08 -524.81269      1425.6303    
    149000   9.9995318     -1.3399542e+08 -526.92084      1425.6446    
    150000   10.000323     -1.3399542e+08 -529.86609      1425.6588    
    151000   9.998498      -1.339954e+08  -532.12176      1425.6731    
    152000   10.001229     -1.339954e+08  -534.29825      1425.6873    
    153000   9.9983465     -1.3399538e+08 -536.62211      1425.7015    
    154000   10.000184     -1.3399539e+08 -539.8528       1425.7158    
    155000   10.000338     -1.3399539e+08 -544.30618      1425.73      
    156000   10.001382     -1.3399538e+08 -545.29648      1425.7443    
    157000   10.000203     -1.3399537e+08 -547.57069      1425.7585    
    158000   10.002307     -1.3399537e+08 -550.24871      1425.7728    
    159000   10.000345     -1.3399536e+08 -553.31392      1425.787     
    160000   10.001066     -1.3399536e+08 -556.26333      1425.8012    
    161000   9.9997749     -1.3399535e+08 -558.57671      1425.8155    
    162000   9.9995354     -1.3399534e+08 -560.84648      1425.8297    
    163000   9.9999493     -1.3399533e+08 -564.65601      1425.844     
    164000   10.000647     -1.3399532e+08 -568.1815       1425.8582    
    165000   10.001646     -1.3399532e+08 -570.25952      1425.8724    
    166000   10.001539     -1.3399532e+08 -573.112        1425.8867    
    167000   10.000332     -1.3399531e+08 -575.87015      1425.9009    
    168000   9.9993535     -1.339953e+08  -580.40973      1425.9152    
    169000   10.000233     -1.3399529e+08 -581.66477      1425.9294    
    170000   9.9995569     -1.3399529e+08 -584.18397      1425.9437    
    171000   9.9979749     -1.3399529e+08 -586.47543      1425.9579    
    172000   9.9983245     -1.3399529e+08 -589.1508       1425.9721    
    173000   9.9977278     -1.3399528e+08 -591.73904      1425.9864    
    174000   9.9982093     -1.3399527e+08 -595.88982      1426.0006    
    175000   10.000012     -1.3399526e+08 -598.03328      1426.0149    
    176000   9.9989767     -1.3399525e+08 -602.27522      1426.0291    
    177000   10.001194     -1.3399524e+08 -604.71483      1426.0434    
    178000   10.000165     -1.3399524e+08 -606.30791      1426.0576    
    179000   10.000015     -1.3399522e+08 -609.3434       1426.0718    
    180000   10.001439     -1.3399522e+08 -610.91076      1426.0861    
    181000   10.001168     -1.3399521e+08 -615.1908       1426.1003    
    182000   10.000631     -1.3399521e+08 -616.70649      1426.1146    
    183000   10.000322     -1.339952e+08  -620.72325      1426.1288    
    184000   9.9987948     -1.339952e+08  -623.54751      1426.1431    
    185000   9.9996827     -1.3399519e+08 -625.53767      1426.1573    
    186000   9.9990159     -1.3399518e+08 -627.5824       1426.1715    
    187000   10.002287     -1.3399517e+08 -631.51025      1426.1858    
    188000   10.003012     -1.3399516e+08 -632.97442      1426.2       
    189000   10.001357     -1.3399515e+08 -636.1405       1426.2143    
    190000   10.002874     -1.3399516e+08 -637.53924      1426.2285    
    191000   10.001346     -1.3399514e+08 -640.09537      1426.2428    
    192000   10.002709     -1.3399514e+08 -642.77642      1426.257     
    193000   9.9992109     -1.3399512e+08 -647.96849      1426.2712    
    194000   10.000229     -1.3399513e+08 -651.36486      1426.2855    
    195000   10.000905     -1.3399512e+08 -653.32224      1426.2997    
    196000   9.9991186     -1.3399511e+08 -655.198        1426.314     
    197000   10.000262     -1.339951e+08  -656.12504      1426.3282    
    198000   10.000308     -1.339951e+08  -659.67346      1426.3424    
    199000   10.001071     -1.3399509e+08 -662.72953      1426.3567    
    200000   9.9993118     -1.3399507e+08 -665.89838      1426.3709    
    201000   9.9998095     -1.3399507e+08 -668.507        1426.3852    
    202000   10.00006      -1.3399505e+08 -671.34963      1426.3994    
    203000   10.001774     -1.3399506e+08 -673.07143      1426.4137    
    204000   10.000902     -1.3399506e+08 -676.48263      1426.4279    
    205000   9.9989721     -1.3399504e+08 -680.34488      1426.4421    
    206000   10.002149     -1.3399505e+08 -684.47589      1426.4564    
    207000   9.9992462     -1.3399503e+08 -687.29318      1426.4706    
    208000   10.001322     -1.3399502e+08 -689.2064       1426.4849    
    209000   10.002757     -1.3399502e+08 -691.29885      1426.4991    
    210000   10.001975     -1.3399501e+08 -692.4638       1426.5134    
    211000   9.9990924     -1.3399499e+08 -695.77776      1426.5276    
    212000   10.002818     -1.33995e+08   -697.73028      1426.5418    
    213000   10.000728     -1.3399499e+08 -702.45237      1426.5561    
    214000   10.000631     -1.3399497e+08 -704.99867      1426.5703    
    215000   10.000067     -1.3399496e+08 -709.62658      1426.5846    
    216000   9.9986862     -1.3399496e+08 -710.28399      1426.5988    
    217000   9.998708      -1.3399495e+08 -712.89556      1426.6131    
    218000   10.001581     -1.3399493e+08 -713.91152      1426.6273    
    219000   10.002869     -1.3399494e+08 -717.32227      1426.6415    
    220000   10.000901     -1.3399492e+08 -720.53649      1426.6558    
    221000   9.9994843     -1.3399492e+08 -724.61216      1426.67      
    222000   10.001682     -1.3399491e+08 -726.5116       1426.6843    
    223000   9.9994864     -1.339949e+08  -730.11708      1426.6985    
    224000   9.9986273     -1.339949e+08  -734.50678      1426.7127    
    225000   9.9995471     -1.3399489e+08 -736.55756      1426.727     
    226000   9.9974935     -1.3399487e+08 -738.60981      1426.7412    
    227000   10.000409     -1.3399487e+08 -740.6514       1426.7555    
    228000   9.9997983     -1.3399486e+08 -744.05639      1426.7697    
    229000   9.9997898     -1.3399485e+08 -745.15423      1426.784     
    230000   10.002642     -1.3399486e+08 -748.54774      1426.7982    
    231000   9.9990175     -1.3399483e+08 -751.44178      1426.8124    
    232000   9.9990778     -1.3399482e+08 -754.94669      1426.8267    
    233000   9.9988136     -1.3399482e+08 -756.62582      1426.8409    
    234000   9.9974169     -1.3399481e+08 -758.28306      1426.8552    
    235000   9.9984652     -1.339948e+08  -762.60342      1426.8694    
    236000   9.9995024     -1.3399479e+08 -766.97818      1426.8837    
    237000   9.9986012     -1.3399478e+08 -769.42804      1426.8979    
    238000   10.000591     -1.3399477e+08 -771.19633      1426.9121    
    239000   10.00055      -1.3399476e+08 -773.7794       1426.9264    
    240000   10.001837     -1.3399476e+08 -775.43755      1426.9406    
    241000   10.00152      -1.3399474e+08 -779.30712      1426.9549    
    242000   10.001841     -1.3399474e+08 -782.60977      1426.9691    
    243000   10.000752     -1.3399471e+08 -785.5821       1426.9834    
    244000   10.00071      -1.3399472e+08 -789.15137      1426.9976    
    245000   10.000841     -1.3399472e+08 -790.30225      1427.0118    
    246000   10.000446     -1.339947e+08  -791.9869       1427.0261    
    247000   10.002084     -1.3399469e+08 -795.55537      1427.0403    
    248000   10.001426     -1.3399469e+08 -797.32349      1427.0546    
    249000   10.000728     -1.3399467e+08 -800.77981      1427.0688    
    250000   10.001773     -1.3399467e+08 -802.93107      1427.083     
    251000   10.000283     -1.3399465e+08 -806.58656      1427.0973    
    252000   10.003399     -1.3399464e+08 -808.69779      1427.1115    
    253000   10.0039       -1.3399464e+08 -811.41933      1427.1258    
    254000   10.001794     -1.3399462e+08 -814.45135      1427.14      
    255000   10.000971     -1.3399461e+08 -817.05575      1427.1543    
    256000   9.999533      -1.3399461e+08 -820.46345      1427.1685    
    257000   9.9981131     -1.339946e+08  -821.55447      1427.1827    
    258000   9.999093      -1.3399459e+08 -825.98932      1427.197     
    259000   9.9984211     -1.3399458e+08 -828.65736      1427.2112    
    260000   9.9992912     -1.3399457e+08 -831.66187      1427.2255    
    261000   9.9993538     -1.3399456e+08 -834.87973      1427.2397    
    262000   9.9999585     -1.3399456e+08 -835.74431      1427.254     
    263000   9.9982384     -1.3399455e+08 -838.09289      1427.2682    
    264000   10.000156     -1.3399454e+08 -841.10086      1427.2824    
    265000   9.999722      -1.3399453e+08 -844.52297      1427.2967    
    266000   10.001296     -1.3399452e+08 -847.19648      1427.3109    
    267000   10.002095     -1.3399451e+08 -849.07188      1427.3252    
    268000   10.000234     -1.3399449e+08 -850.88074      1427.3394    
    269000   10.001294     -1.3399449e+08 -855.29831      1427.3537    
    270000   10.002326     -1.3399447e+08 -858.76216      1427.3679    
    271000   10.000459     -1.3399445e+08 -862.09276      1427.3821    
    272000   10.000694     -1.3399445e+08 -863.59488      1427.3964    
    273000   10.00142      -1.3399444e+08 -866.26501      1427.4106    
    274000   10.000372     -1.3399444e+08 -868.28501      1427.4249    
    275000   9.9993087     -1.3399444e+08 -871.65875      1427.4391    
    276000   10.000036     -1.3399442e+08 -875.22936      1427.4533    
    277000   10.000824     -1.339944e+08  -878.09144      1427.4676    
    278000   10.000182     -1.339944e+08  -879.22878      1427.4818    
    279000   9.999274      -1.3399438e+08 -881.41846      1427.4961    
    280000   10.000529     -1.3399438e+08 -883.89504      1427.5103    
    281000   9.9996123     -1.3399436e+08 -888.39625      1427.5246    
    282000   9.9995097     -1.3399437e+08 -890.94479      1427.5388    
    283000   9.9979276     -1.3399434e+08 -893.24326      1427.553     
    284000   9.9995123     -1.3399434e+08 -895.63526      1427.5673    
    285000   10.000908     -1.3399432e+08 -899.20255      1427.5815    
    286000   9.9974143     -1.3399431e+08 -900.88903      1427.5958    
    287000   10.001195     -1.3399431e+08 -903.21394      1427.61      
    288000   9.9986546     -1.3399429e+08 -906.31045      1427.6243    
    289000   10.002744     -1.3399429e+08 -908.99096      1427.6385    
    290000   10.000526     -1.3399428e+08 -912.70711      1427.6527    
    291000   10.001653     -1.3399427e+08 -914.61932      1427.667     
    292000   9.9992728     -1.3399425e+08 -917.58738      1427.6812    
    293000   9.9988775     -1.3399424e+08 -920.87842      1427.6955    
    294000   10.000427     -1.3399424e+08 -925.70758      1427.7097    
    295000   10.000993     -1.3399423e+08 -928.31511      1427.724     
    296000   9.9997698     -1.3399421e+08 -931.37949      1427.7382    
    297000   10.000634     -1.339942e+08  -931.71933      1427.7524    
    298000   10.000649     -1.339942e+08  -934.99171      1427.7667    
    299000   10.001077     -1.3399418e+08 -937.12871      1427.7809    
    300000   10.00042      -1.3399416e+08 -939.84689      1427.7952    
    301000   10.001253     -1.3399417e+08 -942.53337      1427.8094    
    302000   9.9997224     -1.3399416e+08 -946.81064      1427.8237    
    303000   9.9994001     -1.3399414e+08 -948.79797      1427.8379    
    304000   10.000775     -1.3399414e+08 -951.50671      1427.8521    
    305000   9.9996438     -1.3399411e+08 -951.47847      1427.8664    
    306000   10.000847     -1.339941e+08  -955.09556      1427.8806    
    307000   10.000391     -1.3399409e+08 -956.59572      1427.8949    
    308000   10.000594     -1.3399408e+08 -962.33285      1427.9091    
    309000   9.9988949     -1.3399407e+08 -964.98612      1427.9233    
    310000   10.001075     -1.3399406e+08 -968.17131      1427.9376    
    311000   10.001156     -1.3399405e+08 -969.97392      1427.9518    
    312000   10.001342     -1.3399403e+08 -973.03009      1427.9661    
    313000   10.003326     -1.3399403e+08 -976.04591      1427.9803    
    314000   9.9994417     -1.3399401e+08 -978.70075      1427.9946    
    315000   9.9990168     -1.3399401e+08 -980.92477      1428.0088    
    316000   10.000343     -1.33994e+08   -984.82818      1428.023     
    317000   9.9991008     -1.3399398e+08 -987.56833      1428.0373    
    318000   10.001317     -1.3399397e+08 -988.96238      1428.0515    
    319000   10.001904     -1.3399397e+08 -989.3742       1428.0658    
    320000   10.000467     -1.3399395e+08 -992.61092      1428.08      
    321000   10.000941     -1.3399394e+08 -995.89396      1428.0943    
    322000   10.001877     -1.3399394e+08 -999.36245      1428.1085    
    323000   10.000609     -1.3399391e+08 -1003.0806      1428.1227    
    324000   10.001069     -1.3399391e+08 -1005.3576      1428.137     
    325000   9.9989232     -1.3399388e+08 -1007.1101      1428.1512    
    326000   10.002751     -1.3399388e+08 -1010.0042      1428.1655    
    327000   10.0004       -1.3399387e+08 -1013.0624      1428.1797    
    328000   10.002682     -1.3399386e+08 -1014.8859      1428.194     
    329000   9.9991037     -1.3399384e+08 -1018.1995      1428.2082    
    330000   9.998334      -1.3399383e+08 -1021.1756      1428.2224    
    331000   10.000535     -1.3399383e+08 -1023.6993      1428.2367    
    332000   9.9997427     -1.339938e+08  -1026.0957      1428.2509    
    333000   10.000289     -1.339938e+08  -1029.0924      1428.2652    
    334000   10.000709     -1.3399379e+08 -1031.1352      1428.2794    
    335000   10.001016     -1.3399379e+08 -1034.2284      1428.2936    
    336000   9.9990363     -1.3399377e+08 -1039.0436      1428.3079    
    337000   9.9967591     -1.3399375e+08 -1041.8995      1428.3221    
    338000   9.9966475     -1.3399374e+08 -1044.4909      1428.3364    
    339000   9.9998982     -1.3399372e+08 -1046.9772      1428.3506    
    340000   10.000996     -1.3399372e+08 -1048.8922      1428.3649    
    341000   10.002361     -1.339937e+08  -1053.3844      1428.3791    
    342000   10.003505     -1.3399368e+08 -1056.038       1428.3933    
    343000   10.001463     -1.3399367e+08 -1058.3475      1428.4076    
    344000   10.001485     -1.3399366e+08 -1059.5796      1428.4218    
    345000   10.000268     -1.3399365e+08 -1061.2177      1428.4361    
    346000   10.000202     -1.3399364e+08 -1064.9405      1428.4503    
    347000   10.00042      -1.3399362e+08 -1068.423       1428.4646    
    348000   10.001396     -1.3399362e+08 -1070.133       1428.4788    
    349000   10.000216     -1.3399361e+08 -1071.4147      1428.493     
    350000   10.000913     -1.339936e+08  -1075.6147      1428.5073    
    351000   10.000195     -1.3399358e+08 -1077.9709      1428.5215    
    352000   9.9983622     -1.3399358e+08 -1081.5006      1428.5358    
    353000   10.00066      -1.3399357e+08 -1083.0205      1428.55      
    354000   9.9981362     -1.3399355e+08 -1085.7442      1428.5643    
    355000   9.9980354     -1.3399354e+08 -1088.4467      1428.5785    
    356000   9.9990372     -1.3399352e+08 -1092.4228      1428.5927    
    357000   9.999132      -1.3399351e+08 -1094.1305      1428.607     
    358000   9.9990718     -1.339935e+08  -1098.2587      1428.6212    
    359000   9.9980158     -1.3399347e+08 -1099.3833      1428.6355    
    360000   9.9990399     -1.3399346e+08 -1102.9502      1428.6497    
    361000   9.9996217     -1.3399347e+08 -1104.84        1428.6639    
    362000   9.9991025     -1.3399345e+08 -1107.8937      1428.6782    
    363000   9.9987813     -1.3399344e+08 -1110.5012      1428.6924    
    364000   9.9992313     -1.3399343e+08 -1113.2994      1428.7067    
    365000   9.9998565     -1.3399341e+08 -1114.5453      1428.7209    
    366000   9.9969136     -1.3399338e+08 -1118.0689      1428.7352    
    367000   9.998691      -1.3399337e+08 -1121.4402      1428.7494    
    368000   9.9977409     -1.3399337e+08 -1125.1827      1428.7636    
    369000   9.9983241     -1.3399336e+08 -1128.2167      1428.7779    
    370000   9.9999864     -1.3399335e+08 -1130.1789      1428.7921    
    371000   9.9984414     -1.3399332e+08 -1133.0957      1428.8064    
    372000   9.9990187     -1.3399331e+08 -1135.621       1428.8206    
    373000   9.9993094     -1.339933e+08  -1137.4617      1428.8349    
    374000   9.9991996     -1.3399328e+08 -1140.4952      1428.8491    
    375000   10.001048     -1.3399327e+08 -1142.3161      1428.8633    
    376000   10.001437     -1.3399326e+08 -1146.5944      1428.8776    
    377000   10.000729     -1.3399325e+08 -1149.3735      1428.8918    
    378000   10.000984     -1.3399324e+08 -1151.3717      1428.9061    
    379000   10.003226     -1.3399322e+08 -1152.6498      1428.9203    
    380000   10.002203     -1.339932e+08  -1156.4546      1428.9346    
    381000   10.002042     -1.3399319e+08 -1158.4616      1428.9488    
    382000   10.000962     -1.3399318e+08 -1163.4096      1428.963     
    383000   10.000312     -1.3399317e+08 -1165.2111      1428.9773    
    384000   10.000541     -1.3399316e+08 -1168.7902      1428.9915    
    385000   10.001019     -1.3399314e+08 -1170.0645      1429.0058    
    386000   9.9991184     -1.3399311e+08 -1173.3122      1429.02      
    387000   10.001693     -1.3399311e+08 -1175.2337      1429.0343    
    388000   9.9994865     -1.339931e+08  -1179.6387      1429.0485    
    389000   10.000559     -1.3399309e+08 -1180.9215      1429.0627    
    390000   9.9989338     -1.3399307e+08 -1184.7979      1429.077     
    391000   9.9991846     -1.3399306e+08 -1185.4143      1429.0912    
    392000   10.002172     -1.3399306e+08 -1189.3627      1429.1055    
    393000   10.001282     -1.3399304e+08 -1191.632       1429.1197    
    394000   10.002301     -1.3399303e+08 -1194.5568      1429.1339    
    395000   9.9993007     -1.3399302e+08 -1196.6555      1429.1482    
    396000   9.9988788     -1.33993e+08   -1198.1694      1429.1624    
    397000   10.000003     -1.3399298e+08 -1201.0592      1429.1767    
    398000   10.000736     -1.3399297e+08 -1203.5323      1429.1909    
    399000   9.9991198     -1.3399296e+08 -1205.9305      1429.2052    
    400000   9.9999352     -1.3399294e+08 -1210.0854      1429.2194    
    401000   10.000271     -1.3399292e+08 -1213.9149      1429.2336    
    402000   10.001554     -1.339929e+08  -1217.6615      1429.2479    
    403000   10.001213     -1.339929e+08  -1219.3837      1429.2621    
    404000   9.9996434     -1.3399288e+08 -1221.7916      1429.2764    
    405000   9.9998098     -1.3399286e+08 -1222.9717      1429.2906    
    406000   10.001848     -1.3399286e+08 -1225.9375      1429.3049    
    407000   10.000639     -1.3399285e+08 -1228.0745      1429.3191    
    408000   9.9989004     -1.3399282e+08 -1231.2877      1429.3333    
    409000   9.9998983     -1.3399281e+08 -1235.8317      1429.3476    
    410000   10.001068     -1.339928e+08  -1238.5216      1429.3618    
    411000   9.997894      -1.3399278e+08 -1240.5749      1429.3761    
    412000   9.9989243     -1.3399277e+08 -1243.8495      1429.3903    
    413000   10.001033     -1.3399276e+08 -1245.6036      1429.4046    
    414000   9.9999989     -1.3399274e+08 -1247.548       1429.4188    
    415000   9.9991747     -1.3399273e+08 -1250.1384      1429.433     
    416000   9.9986881     -1.3399272e+08 -1253.755       1429.4473    
    417000   9.9981329     -1.339927e+08  -1258.7692      1429.4615    
    418000   9.9996726     -1.3399269e+08 -1260.2117      1429.4758    
    419000   9.9968319     -1.3399267e+08 -1261.8597      1429.49      
    420000   9.9986596     -1.3399266e+08 -1263.8568      1429.5042    
    421000   9.9994822     -1.3399264e+08 -1265.9294      1429.5185    
    422000   9.998278      -1.3399263e+08 -1269.5555      1429.5327    
    423000   9.9998421     -1.3399261e+08 -1273.6547      1429.547     
    424000   9.9987076     -1.339926e+08  -1276.6703      1429.5612    
    425000   9.9993772     -1.3399258e+08 -1277.7256      1429.5755    
    426000   9.9999476     -1.3399257e+08 -1278.9811      1429.5897    
    427000   9.9983896     -1.3399256e+08 -1284.1155      1429.6039    
    428000   9.9954803     -1.3399253e+08 -1286.4787      1429.6182    
    429000   9.9984632     -1.3399252e+08 -1290.0592      1429.6324    
    430000   9.997305      -1.3399251e+08 -1290.8201      1429.6467    
    431000   9.9986216     -1.3399249e+08 -1293.4286      1429.6609    
    432000   9.9971904     -1.3399248e+08 -1294.415       1429.6752    
    433000   9.9981701     -1.3399246e+08 -1297.9492      1429.6894    
    434000   10.002157     -1.3399244e+08 -1301.4508      1429.7036    
    435000   10.001441     -1.3399242e+08 -1304.8117      1429.7179    
    436000   10.001557     -1.3399242e+08 -1308.184       1429.7321    
    437000   10.002138     -1.339924e+08  -1311.1961      1429.7464    
    438000   10.001471     -1.3399239e+08 -1312.7146      1429.7606    
    439000   10.001827     -1.3399237e+08 -1316.0203      1429.7749    
    440000   10.001778     -1.3399235e+08 -1318.1554      1429.7891    
    441000   10.001497     -1.3399232e+08 -1320.9099      1429.8033    
    442000   10.000524     -1.3399231e+08 -1322.8486      1429.8176    
    443000   10.00132      -1.3399231e+08 -1327.3266      1429.8318    
    444000   10.001557     -1.3399229e+08 -1329.1345      1429.8461    
    445000   10.001096     -1.3399228e+08 -1331.6742      1429.8603    
    446000   9.9982219     -1.3399226e+08 -1333.3762      1429.8745    
    447000   10.000853     -1.3399224e+08 -1337.587       1429.8888    
    448000   10.001973     -1.3399222e+08 -1340.039       1429.903     
    449000   10.0004       -1.3399221e+08 -1343.3816      1429.9173    
    450000   10.00009      -1.339922e+08  -1343.966       1429.9315    
    451000   9.9996641     -1.3399218e+08 -1347.6635      1429.9458    
    452000   10.00098      -1.3399217e+08 -1348.5476      1429.96      
    453000   10.000835     -1.3399215e+08 -1352.6317      1429.9742    
    454000   10.000863     -1.3399214e+08 -1355.6934      1429.9885    
    455000   10.000232     -1.3399211e+08 -1357.7273      1430.0027    
    456000   9.9999407     -1.3399211e+08 -1360.8185      1430.017     
    457000   9.9994851     -1.3399209e+08 -1363.2257      1430.0312    
    458000   9.9996896     -1.3399207e+08 -1366.7148      1430.0455    
    459000   10.000541     -1.3399206e+08 -1369.4584      1430.0597    
    460000   10.001558     -1.3399205e+08 -1373.6463      1430.0739    
    461000   10.001138     -1.3399203e+08 -1376.3         1430.0882    
    462000   10.00138      -1.3399201e+08 -1378.4332      1430.1024    
    463000   9.9992968     -1.3399199e+08 -1379.4715      1430.1167    
    464000   10.000945     -1.3399197e+08 -1382.22        1430.1309    
    465000   10.000317     -1.3399195e+08 -1383.2641      1430.1452    
    466000   10.000267     -1.3399194e+08 -1387.1378      1430.1594    
    467000   10.001758     -1.3399193e+08 -1390.052       1430.1736    
    468000   9.9984127     -1.3399191e+08 -1392.1356      1430.1879    
    469000   9.9988045     -1.339919e+08  -1394.2236      1430.2021    
    470000   10.000856     -1.3399189e+08 -1397.869       1430.2164    
    471000   9.9992176     -1.3399186e+08 -1399.9999      1430.2306    
    472000   10.001583     -1.3399185e+08 -1403.7435      1430.2448    
    473000   9.9986658     -1.3399183e+08 -1407.1226      1430.2591    
    474000   9.9990062     -1.3399182e+08 -1409.0644      1430.2733    
    475000   9.999624      -1.3399181e+08 -1412.2292      1430.2876    
    476000   9.9985374     -1.3399178e+08 -1413.7327      1430.3018    
    477000   10.002252     -1.3399177e+08 -1415.8403      1430.3161    
    478000   10.000942     -1.3399176e+08 -1418.2345      1430.3303    
    479000   10.000411     -1.3399175e+08 -1421.1355      1430.3445    
    480000   9.9988148     -1.3399171e+08 -1424.553       1430.3588    
    481000   9.999661      -1.339917e+08  -1428.1703      1430.373     
    482000   10.000121     -1.3399169e+08 -1431.8964      1430.3873    
    483000   10.000388     -1.3399167e+08 -1433.3297      1430.4015    
    484000   10.000758     -1.3399166e+08 -1436.0252      1430.4158    
    485000   9.9982605     -1.3399164e+08 -1436.9199      1430.43      
    486000   9.9998725     -1.3399162e+08 -1440.9458      1430.4442    
    487000   9.9987931     -1.339916e+08  -1443.8373      1430.4585    
    488000   10.0012       -1.3399159e+08 -1447.678       1430.4727    
    489000   9.9986035     -1.3399156e+08 -1449.9158      1430.487     
    490000   9.9997288     -1.3399155e+08 -1453.4236      1430.5012    
    491000   9.9981881     -1.3399153e+08 -1455.2874      1430.5155    
    492000   10.003633     -1.3399152e+08 -1456.5599      1430.5297    
    493000   10.00187      -1.339915e+08  -1459.1278      1430.5439    
    494000   10.000578     -1.3399148e+08 -1462.8475      1430.5582    
    495000   10.000257     -1.3399147e+08 -1465.3764      1430.5724    
    496000   9.9999793     -1.3399145e+08 -1468.2799      1430.5867    
    497000   9.9998055     -1.3399145e+08 -1470.7755      1430.6009    
    498000   10.000536     -1.3399143e+08 -1474.6615      1430.6152    
    499000   10.000848     -1.339914e+08  -1475.0769      1430.6294    
    500000   9.998531      -1.3399137e+08 -1477.5458      1430.6436    
    501000   10.000165     -1.3399137e+08 -1480.7581      1430.6579    
    502000   9.9992311     -1.3399134e+08 -1483.634       1430.6721    
    503000   9.9998709     -1.3399133e+08 -1485.3614      1430.6864    
    504000   10.000024     -1.339913e+08  -1488.55        1430.7006    
    505000   10.002418     -1.339913e+08  -1492.3438      1430.7148    
    506000   10.002503     -1.3399128e+08 -1495.9804      1430.7291    
    507000   10.002118     -1.3399126e+08 -1498.206       1430.7433    
    508000   10.002409     -1.3399125e+08 -1499.9695      1430.7576    
    509000   10.003132     -1.3399122e+08 -1503.1986      1430.7718    
    510000   10.000416     -1.339912e+08  -1506.0883      1430.7861    
    511000   9.9994671     -1.3399118e+08 -1508.6927      1430.8003    
    512000   10.000313     -1.3399118e+08 -1511.8763      1430.8145    
    513000   9.9986303     -1.3399116e+08 -1513.6219      1430.8288    
    514000   9.9994041     -1.3399115e+08 -1515.3057      1430.843     
    515000   9.9997278     -1.3399113e+08 -1518.5945      1430.8573    
    516000   10.002547     -1.3399111e+08 -1521.9755      1430.8715    
    517000   10.000642     -1.339911e+08  -1524.6555      1430.8858    
    518000   9.9974952     -1.3399107e+08 -1527.2975      1430.9       
    519000   9.9989403     -1.3399105e+08 -1527.4656      1430.9142    
    520000   9.9987354     -1.3399105e+08 -1530.3394      1430.9285    
    521000   9.9979133     -1.3399102e+08 -1533.2971      1430.9427    
    522000   9.9983811     -1.3399101e+08 -1536.7772      1430.957     
    523000   9.9986738     -1.3399099e+08 -1541.0339      1430.9712    
    524000   9.9993267     -1.3399096e+08 -1543.8587      1430.9855    
    525000   9.9996767     -1.3399096e+08 -1547.5098      1430.9997    
    526000   9.9997736     -1.3399093e+08 -1548.9852      1431.0139    
    527000   9.9999212     -1.3399091e+08 -1551.8973      1431.0282    
    528000   10.000895     -1.3399089e+08 -1553.0943      1431.0424    
    529000   9.9987909     -1.3399087e+08 -1556.8835      1431.0567    
    530000   10.000058     -1.3399086e+08 -1557.2133      1431.0709    
    531000   9.9970714     -1.3399084e+08 -1560.5477      1431.0851    
    532000   9.9987906     -1.3399083e+08 -1563.7793      1431.0994    
    533000   9.9993176     -1.3399081e+08 -1568.2743      1431.1136    
    534000   9.9995073     -1.3399079e+08 -1570.5056      1431.1279    
    535000   9.9976267     -1.3399077e+08 -1572.083       1431.1421    
    536000   9.9975499     -1.3399075e+08 -1574.034       1431.1564    
    537000   9.9997573     -1.3399073e+08 -1576.9406      1431.1706    
    538000   9.9999615     -1.3399072e+08 -1579.9927      1431.1848    
    539000   9.9983982     -1.339907e+08  -1583.8265      1431.1991    
    540000   9.9984156     -1.3399067e+08 -1586.0084      1431.2133    
    541000   10.000261     -1.3399066e+08 -1586.9851      1431.2276    
    542000   10.000517     -1.3399063e+08 -1589.5168      1431.2418    
    543000   10.000123     -1.3399061e+08 -1591.902       1431.2561    
    544000   10.000942     -1.339906e+08  -1595.961       1431.2703    
    545000   10.000701     -1.3399058e+08 -1599.5161      1431.2845    
    546000   10.00179      -1.3399057e+08 -1601.5165      1431.2988    
    547000   10.000745     -1.3399054e+08 -1603.3884      1431.313     
    548000   10.001968     -1.3399053e+08 -1605.2645      1431.3273    
    549000   10.002269     -1.3399052e+08 -1608.8644      1431.3415    
    550000   10.002661     -1.339905e+08  -1612.8619      1431.3558    
    551000   10.003373     -1.3399047e+08 -1616.6556      1431.37      
    552000   10.001414     -1.3399046e+08 -1617.3505      1431.3842    
    553000   9.999112      -1.3399044e+08 -1620.3038      1431.3985    
    554000   10.000022     -1.3399042e+08 -1622.973       1431.4127    
    555000   9.999206      -1.339904e+08  -1624.1117      1431.427     
    556000   9.999997      -1.3399038e+08 -1625.2914      1431.4412    
    557000   10.000638     -1.3399036e+08 -1629.0787      1431.4554    
    558000   10.001142     -1.3399035e+08 -1633.343       1431.4697    
    559000   9.9993759     -1.3399031e+08 -1634.7236      1431.4839    
    560000   10.000351     -1.339903e+08  -1637.627       1431.4982    
    561000   9.9976018     -1.3399028e+08 -1639.7422      1431.5124    
    562000   9.9990463     -1.3399028e+08 -1642.6751      1431.5267    
    563000   9.9999058     -1.3399025e+08 -1647.0887      1431.5409    
    564000   9.9997651     -1.3399023e+08 -1650.787       1431.5551    
    565000   10.000649     -1.3399021e+08 -1652.2235      1431.5694    
    566000   9.9988769     -1.3399018e+08 -1653.147       1431.5836    
    567000   10.00189      -1.3399017e+08 -1655.9485      1431.5979    
    568000   9.9990486     -1.3399015e+08 -1658.9812      1431.6121    
    569000   9.9997352     -1.3399013e+08 -1661.3659      1431.6264    
    570000   10.000358     -1.3399011e+08 -1663.616       1431.6406    
    571000   9.9998874     -1.3399009e+08 -1665.6603      1431.6548    
    572000   9.9991122     -1.3399007e+08 -1669.7679      1431.6691    
    573000   9.998662      -1.3399004e+08 -1673.0061      1431.6833    
    574000   10.000382     -1.3399003e+08 -1675.5707      1431.6976    
    575000   10.00068      -1.3399001e+08 -1678.0678      1431.7118    
    576000   9.9999411     -1.3398999e+08 -1681.0968      1431.7261    
    577000   10.002725     -1.3398998e+08 -1684.1391      1431.7403    
    578000   10.00303      -1.3398995e+08 -1686.8492      1431.7545    
    579000   10.001625     -1.3398992e+08 -1689.4235      1431.7688    
    580000   10.000269     -1.339899e+08  -1689.5821      1431.783     
    581000   10.000925     -1.3398989e+08 -1692.5606      1431.7973    
    582000   10.000106     -1.3398987e+08 -1695.433       1431.8115    
    583000   10.000251     -1.3398985e+08 -1697.0284      1431.8257    
    584000   9.9990675     -1.3398983e+08 -1698.2453      1431.84      
    585000   9.9979987     -1.3398982e+08 -1702.1217      1431.8542    
    586000   9.9972636     -1.3398979e+08 -1707.6348      1431.8685    
    587000   9.9992459     -1.3398978e+08 -1711.3992      1431.8827    
    588000   10.000337     -1.3398976e+08 -1713.5434      1431.897     
    589000   10.000779     -1.3398974e+08 -1714.9097      1431.9112    
    590000   10.000686     -1.3398972e+08 -1717.8101      1431.9254    
    591000   9.9991845     -1.3398969e+08 -1721.6323      1431.9397    
    592000   10.000115     -1.3398968e+08 -1722.4686      1431.9539    
    593000   9.9990188     -1.3398965e+08 -1726.6557      1431.9682    
    594000   10.000806     -1.3398963e+08 -1728.4713      1431.9824    
    595000   9.9998375     -1.3398962e+08 -1731.014       1431.9967    
    596000   10.000302     -1.3398961e+08 -1733.7168      1432.0109    
    597000   10.001591     -1.3398958e+08 -1736.2384      1432.0251    
    598000   10.000922     -1.3398955e+08 -1737.1096      1432.0394    
    599000   9.9995498     -1.3398953e+08 -1739.553       1432.0536    
    600000   10.001226     -1.3398952e+08 -1743.9716      1432.0679    
    601000   10.000935     -1.339895e+08  -1747.3116      1432.0821    
    602000   10.000816     -1.3398948e+08 -1750.2328      1432.0964    
    603000   9.9999813     -1.3398946e+08 -1751.2435      1432.1106    
    604000   10.001651     -1.3398944e+08 -1755.4502      1432.1248    
    605000   9.9995906     -1.3398942e+08 -1757.7979      1432.1391    
    606000   9.9990678     -1.339894e+08  -1759.7363      1432.1533    
    607000   9.9973404     -1.3398937e+08 -1762.0727      1432.1676    
    608000   10.001348     -1.3398936e+08 -1763.7703      1432.1818    
    609000   9.9985803     -1.3398933e+08 -1767.3325      1432.1961    
    610000   10.001278     -1.3398931e+08 -1771.8619      1432.2103    
    611000   10.000086     -1.3398929e+08 -1776.7702      1432.2245    
    612000   9.9994895     -1.3398926e+08 -1778.0624      1432.2388    
    613000   10.00165      -1.3398924e+08 -1777.3884      1432.253     
    614000   10.001939     -1.3398923e+08 -1779.3216      1432.2673    
    615000   9.9996583     -1.3398921e+08 -1782.9308      1432.2815    
    616000   10.000333     -1.3398918e+08 -1786.1995      1432.2957    
    617000   10.000523     -1.3398916e+08 -1788.9925      1432.31      
    618000   10.0006       -1.3398913e+08 -1789.6548      1432.3242    
    619000   10.000469     -1.3398912e+08 -1791.8941      1432.3385    
    620000   10.000655     -1.339891e+08  -1794.6966      1432.3527    
    621000   9.9991358     -1.3398908e+08 -1798.7894      1432.367     
    622000   10.000385     -1.3398906e+08 -1803.7065      1432.3812    
    623000   10.000593     -1.3398904e+08 -1806.9263      1432.3954    
    624000   9.9993593     -1.3398902e+08 -1808.1067      1432.4097    
    625000   9.9998054     -1.3398899e+08 -1809.5587      1432.4239    
    626000   10.000039     -1.3398898e+08 -1810.4977      1432.4382    
    627000   10.001479     -1.3398895e+08 -1813.4851      1432.4524    
    628000   9.9996279     -1.3398893e+08 -1816.6697      1432.4667    
    629000   9.9989995     -1.3398892e+08 -1820.9781      1432.4809    
    630000   9.9988234     -1.3398889e+08 -1824.3125      1432.4951    
    631000   9.9997402     -1.3398887e+08 -1827.91        1432.5094    
    632000   9.998412      -1.3398884e+08 -1827.48        1432.5236    
    633000   9.9996752     -1.3398883e+08 -1829.1465      1432.5379    
    634000   9.9992162     -1.3398882e+08 -1831.679       1432.5521    
    635000   9.998615      -1.339888e+08  -1835.994       1432.5664    
    636000   9.9977891     -1.3398877e+08 -1839.3632      1432.5806    
    637000   9.9983739     -1.3398875e+08 -1841.5627      1432.5948    
    638000   9.99882       -1.3398873e+08 -1843.5371      1432.6091    
    639000   9.9993872     -1.339887e+08  -1846.3406      1432.6233    
    640000   9.999603      -1.3398867e+08 -1850.7348      1432.6376    
    641000   9.9998763     -1.3398866e+08 -1852.9293      1432.6518    
    642000   10.000187     -1.3398864e+08 -1855.6094      1432.666     
    643000   9.9997341     -1.3398861e+08 -1856.9542      1432.6803    
    644000   10.000501     -1.339886e+08  -1858.3383      1432.6945    
    645000   9.9991506     -1.3398856e+08 -1860.2837      1432.7088    
    646000   9.9999363     -1.3398854e+08 -1864.4063      1432.723     
    647000   10.002349     -1.3398853e+08 -1868.1459      1432.7373    
    648000   10.000223     -1.3398851e+08 -1869.9661      1432.7515    
    649000   10.001263     -1.3398849e+08 -1871.5652      1432.7657    
    650000   9.9988213     -1.3398845e+08 -1873.9943      1432.78      
    651000   10.001518     -1.3398844e+08 -1876.5162      1432.7942    
    652000   10.002516     -1.3398842e+08 -1880.588       1432.8085    
    653000   10.001108     -1.3398839e+08 -1883.7425      1432.8227    
    654000   10.001121     -1.3398838e+08 -1886.3371      1432.837     
    655000   9.9985393     -1.3398836e+08 -1887.7769      1432.8512    
    656000   9.9990512     -1.3398833e+08 -1888.9205      1432.8654    
    657000   10.000722     -1.3398831e+08 -1893.3681      1432.8797    
    658000   9.9987132     -1.3398828e+08 -1896.9438      1432.8939    
    659000   10.000776     -1.3398826e+08 -1900.3197      1432.9082    
    660000   9.9980982     -1.3398824e+08 -1904.0627      1432.9224    
    661000   9.9976624     -1.3398822e+08 -1906.3704      1432.9367    
    662000   10.000123     -1.3398821e+08 -1907.8269      1432.9509    
    663000   9.9990732     -1.3398818e+08 -1909.2305      1432.9651    
    664000   10.000574     -1.3398816e+08 -1910.9113      1432.9794    
    665000   10.000627     -1.3398812e+08 -1915.5539      1432.9936    
    666000   9.9983194     -1.339881e+08  -1917.8187      1433.0079    
    667000   9.9994008     -1.3398809e+08 -1919.8941      1433.0221    
    668000   9.9982211     -1.3398806e+08 -1922.4407      1433.0363    
    669000   10.000209     -1.3398804e+08 -1925.4301      1433.0506    
    670000   9.9976735     -1.3398801e+08 -1927.35        1433.0648    
    671000   10.001253     -1.3398799e+08 -1929.9142      1433.0791    
    672000   9.9974894     -1.3398797e+08 -1932.2773      1433.0933    
    673000   10.000393     -1.3398796e+08 -1935.0288      1433.1076    
    674000   10.00002      -1.3398793e+08 -1939.333       1433.1218    
    675000   10.002365     -1.3398791e+08 -1940.9735      1433.136     
    676000   10.000362     -1.3398788e+08 -1943.2219      1433.1503    
    677000   9.9979945     -1.3398786e+08 -1944.7805      1433.1645    
    678000   9.9989745     -1.3398785e+08 -1949.2815      1433.1788    
    679000   9.9996558     -1.3398782e+08 -1952.8529      1433.193     
    680000   10.000414     -1.339878e+08  -1955.1531      1433.2073    
    681000   10.001719     -1.3398777e+08 -1957.5658      1433.2215    
    682000   9.9999459     -1.3398774e+08 -1959.2176      1433.2357    
    683000   9.9993506     -1.3398772e+08 -1962.3538      1433.25      
    684000   9.9986196     -1.339877e+08  -1964.9259      1433.2642    
    685000   9.9978511     -1.3398768e+08 -1967.9278      1433.2785    
    686000   10.00043      -1.3398766e+08 -1970.5213      1433.2927    
    687000   10.002739     -1.3398764e+08 -1973.0151      1433.307     
    688000   10.001038     -1.339876e+08  -1974.6456      1433.3212    
    689000   10.000212     -1.3398759e+08 -1977.4305      1433.3354    
    690000   10.000656     -1.3398757e+08 -1981.5217      1433.3497    
    691000   9.9986576     -1.3398753e+08 -1984.1978      1433.3639    
    692000   10.002083     -1.3398752e+08 -1986.3204      1433.3782    
    693000   10.000772     -1.339875e+08  -1987.5233      1433.3924    
    694000   9.9993512     -1.3398747e+08 -1989.7431      1433.4067    
    695000   10.002053     -1.3398744e+08 -1993.6272      1433.4209    
    696000   10.001107     -1.3398742e+08 -1997.22        1433.4351    
    697000   10.001064     -1.339874e+08  -2000.4057      1433.4494    
    698000   10.001536     -1.3398738e+08 -2001.8392      1433.4636    
    699000   10.002428     -1.3398736e+08 -2002.7582      1433.4779    
    700000   9.9998854     -1.3398733e+08 -2005.6746      1433.4921    
    701000   10.001603     -1.339873e+08  -2008.6785      1433.5063    
    702000   10.001842     -1.3398728e+08 -2011.1618      1433.5206    
    703000   10.000897     -1.3398726e+08 -2015.8252      1433.5348    
    704000   9.9999587     -1.3398723e+08 -2018.5419      1433.5491    
    705000   10.002233     -1.3398722e+08 -2020.3715      1433.5633    
    706000   10.000035     -1.339872e+08  -2022.3505      1433.5776    
    707000   10.000085     -1.3398717e+08 -2026.0123      1433.5918    
    708000   9.9999545     -1.3398714e+08 -2029.7706      1433.606     
    709000   10.000671     -1.3398712e+08 -2030.6974      1433.6203    
    710000   10.001201     -1.3398709e+08 -2033.8963      1433.6345    
    711000   10.00057      -1.3398706e+08 -2034.7715      1433.6488    
    712000   10.001753     -1.3398704e+08 -2036.9648      1433.663     
    713000   9.9997987     -1.3398703e+08 -2040.0154      1433.6773    
    714000   9.9995119     -1.33987e+08   -2041.9682      1433.6915    
    715000   10.001204     -1.3398698e+08 -2045.0123      1433.7057    
    716000   10.001342     -1.3398695e+08 -2047.5987      1433.72      
    717000   10.001673     -1.3398693e+08 -2051.5671      1433.7342    
    718000   9.9995568     -1.339869e+08  -2053.8545      1433.7485    
    719000   10.001143     -1.3398688e+08 -2056.0635      1433.7627    
    720000   10.002505     -1.3398686e+08 -2059.3414      1433.777     
    721000   10.001296     -1.3398682e+08 -2062.0877      1433.7912    
    722000   10.002842     -1.3398681e+08 -2062.95        1433.8054    
    723000   10.000253     -1.3398677e+08 -2065.6603      1433.8197    
    724000   10.000314     -1.3398675e+08 -2070.3916      1433.8339    
    725000   10.00054      -1.3398673e+08 -2073.8186      1433.8482    
    726000   10.001005     -1.3398671e+08 -2075.4641      1433.8624    
    727000   9.9991279     -1.3398668e+08 -2077.2692      1433.8766    
    728000   10.001113     -1.3398666e+08 -2078.2243      1433.8909    
    729000   9.9987203     -1.3398664e+08 -2081.9832      1433.9051    
    730000   9.9979574     -1.3398661e+08 -2084.9594      1433.9194    
    731000   9.9981402     -1.3398659e+08 -2087.624       1433.9336    
    732000   9.9990216     -1.3398658e+08 -2089.3347      1433.9479    
    733000   9.9989328     -1.3398655e+08 -2091.3566      1433.9621    
    734000   10.001109     -1.3398651e+08 -2094.2762      1433.9763    
    735000   9.9979293     -1.339865e+08  -2098.1155      1433.9906    
    736000   10.001004     -1.3398647e+08 -2099.962       1434.0048    
    737000   9.9981883     -1.3398644e+08 -2102.9761      1434.0191    
    738000   9.9984137     -1.3398642e+08 -2105.0449      1434.0333    
    739000   9.9987642     -1.3398641e+08 -2110.6386      1434.0476    
    740000   9.9984008     -1.3398637e+08 -2112.9545      1434.0618    
    741000   10.000109     -1.3398636e+08 -2116.4177      1434.076     
    742000   9.9983546     -1.3398633e+08 -2116.365       1434.0903    
    743000   9.9997046     -1.339863e+08  -2117.231       1434.1045    
    744000   10.002102     -1.3398628e+08 -2120.8903      1434.1188    
    745000   10.002193     -1.3398624e+08 -2122.7172      1434.133     
    746000   10.00022      -1.3398622e+08 -2128.0429      1434.1473    
    747000   9.9975278     -1.339862e+08  -2130.3266      1434.1615    
    748000   10.000364     -1.3398618e+08 -2133.3118      1434.1757    
    749000   10.00019      -1.3398615e+08 -2134.8294      1434.19      
    750000   9.9989107     -1.3398612e+08 -2137.8018      1434.2042    
    751000   9.9983754     -1.339861e+08  -2140.0784      1434.2185    
    752000   9.9992829     -1.3398608e+08 -2142.7531      1434.2327    
    753000   9.9983402     -1.3398605e+08 -2144.4458      1434.2469    
    754000   9.9989554     -1.3398602e+08 -2146.2538      1434.2612    
    755000   10.000071     -1.3398599e+08 -2149.9957      1434.2754    
    756000   10.000488     -1.3398597e+08 -2153.598       1434.2897    
    757000   10.000153     -1.3398595e+08 -2156.0879      1434.3039    
    758000   9.9985118     -1.3398592e+08 -2156.1229      1434.3182    
    759000   9.9985696     -1.3398589e+08 -2159.9701      1434.3324    
    760000   10.00188      -1.3398587e+08 -2163.8322      1434.3466    
    761000   10.000723     -1.3398585e+08 -2166.9603      1434.3609    
    762000   9.9979164     -1.3398582e+08 -2169.6012      1434.3751    
    763000   10.000174     -1.3398579e+08 -2171.8208      1434.3894    
    764000   10.001092     -1.3398576e+08 -2171.9696      1434.4036    
    765000   10.001876     -1.3398575e+08 -2174.0995      1434.4179    
    766000   10.000382     -1.3398571e+08 -2179.987       1434.4321    
    767000   10.001234     -1.3398568e+08 -2183.859       1434.4463    
    768000   10.001314     -1.3398566e+08 -2186.7488      1434.4606    
    769000   10.000411     -1.3398564e+08 -2187.3471      1434.4748    
    770000   9.9991566     -1.3398561e+08 -2187.7747      1434.4891    
    771000   9.9991474     -1.3398559e+08 -2189.4596      1434.5033    
    772000   9.9982817     -1.3398556e+08 -2193.0855      1434.5176    
    773000   10.001534     -1.3398554e+08 -2196.1646      1434.5318    
    774000   9.9989379     -1.3398549e+08 -2200.8844      1434.546     
    775000   9.999393      -1.3398548e+08 -2201.9951      1434.5603    
    776000   9.9996245     -1.3398545e+08 -2205.8283      1434.5745    
    777000   9.9998715     -1.3398543e+08 -2205.8119      1434.5888    
    778000   10.000287     -1.3398541e+08 -2208.3039      1434.603     
    779000   10.000196     -1.3398538e+08 -2210.7477      1434.6172    
    780000   10.001601     -1.3398536e+08 -2215.8556      1434.6315    
    781000   9.9982335     -1.3398533e+08 -2217.7092      1434.6457    
    782000   9.9989573     -1.339853e+08  -2220.4225      1434.66      
    783000   10.001127     -1.3398528e+08 -2222.3569      1434.6742    
    784000   10.000875     -1.3398526e+08 -2225.0144      1434.6885    
    785000   9.9976282     -1.3398522e+08 -2227.7683      1434.7027    
    786000   9.9985302     -1.339852e+08  -2231.4477      1434.7169    
    787000   9.9991915     -1.3398518e+08 -2232.8428      1434.7312    
    788000   10.002761     -1.3398515e+08 -2236.05        1434.7454    
    789000   10.001556     -1.3398513e+08 -2236.4318      1434.7597    
    790000   10.000603     -1.339851e+08  -2240.7782      1434.7739    
    791000   9.9999708     -1.3398506e+08 -2242.0109      1434.7882    
    792000   10.001249     -1.3398504e+08 -2248.2519      1434.8024    
    793000   10.000413     -1.3398501e+08 -2249.9388      1434.8166    
    794000   10.001893     -1.3398498e+08 -2252.3006      1434.8309    
    795000   10.003064     -1.3398497e+08 -2253.246       1434.8451    
    796000   10.002009     -1.3398494e+08 -2255.8063      1434.8594    
    797000   10.002209     -1.3398491e+08 -2260.5102      1434.8736    
    798000   9.999971      -1.3398488e+08 -2263.3784      1434.8879    
    799000   10.000928     -1.3398485e+08 -2263.5632      1434.9021    
    800000   10.00185      -1.3398483e+08 -2265.3615      1434.9163    
    801000   9.9991079     -1.339848e+08  -2268.014       1434.9306    
    802000   9.9997405     -1.3398478e+08 -2272.6422      1434.9448    
    803000   9.9988261     -1.3398476e+08 -2274.2707      1434.9591    
    804000   9.9999112     -1.3398473e+08 -2276.4962      1434.9733    
    805000   9.9999917     -1.3398471e+08 -2278.9271      1434.9876    
    806000   9.9957596     -1.3398467e+08 -2282.225       1435.0018    
    807000   9.9984545     -1.3398465e+08 -2284.842       1435.016     
    808000   10.000553     -1.3398463e+08 -2288.7017      1435.0303    
    809000   9.9990619     -1.3398459e+08 -2291.8862      1435.0445    
    810000   10.00042      -1.3398456e+08 -2294.5089      1435.0588    
    811000   9.999674      -1.3398453e+08 -2295.7283      1435.073     
    812000   10.002071     -1.3398451e+08 -2298.1182      1435.0872    
    813000   9.9999523     -1.3398448e+08 -2300.4464      1435.1015    
    814000   10.000217     -1.3398446e+08 -2303.7804      1435.1157    
    815000   10.001809     -1.3398444e+08 -2306.9101      1435.13      
    816000   10.001093     -1.339844e+08  -2309.1249      1435.1442    
    817000   10.001997     -1.3398438e+08 -2310.0498      1435.1585    
    818000   10.001321     -1.3398435e+08 -2312.9107      1435.1727    
    819000   10.002455     -1.3398433e+08 -2315.2392      1435.1869    
    820000   10.00058      -1.3398429e+08 -2319.0746      1435.2012    
    821000   10.000354     -1.3398427e+08 -2322.3734      1435.2154    
    822000   10.000088     -1.3398424e+08 -2324.7926      1435.2297    
    823000   10.001655     -1.3398422e+08 -2327.6624      1435.2439    
    824000   10.000027     -1.3398418e+08 -2327.2168      1435.2582    
    825000   10.001814     -1.3398416e+08 -2330.5064      1435.2724    
    826000   10.000882     -1.3398413e+08 -2333.1771      1435.2866    
    827000   9.9995426     -1.339841e+08  -2338.1047      1435.3009    
    828000   10.000932     -1.3398406e+08 -2341.1032      1435.3151    
    829000   10.00173      -1.3398405e+08 -2342.5484      1435.3294    
    830000   9.9989041     -1.3398401e+08 -2344.5284      1435.3436    
    831000   10.001015     -1.3398399e+08 -2347.4729      1435.3579    
    832000   10.00257      -1.3398398e+08 -2349.9834      1435.3721    
    833000   9.9997807     -1.3398393e+08 -2351.297       1435.3863    
    834000   10.000303     -1.3398391e+08 -2355.5281      1435.4006    
    835000   10.002686     -1.3398389e+08 -2357.355       1435.4148    
    836000   9.9998701     -1.3398386e+08 -2361.2441      1435.4291    
    837000   10.000133     -1.3398383e+08 -2361.7802      1435.4433    
    838000   10.000461     -1.339838e+08  -2363.7451      1435.4575    
    839000   10.003106     -1.3398379e+08 -2366.4519      1435.4718    
    840000   10.000923     -1.3398375e+08 -2369.93        1435.486     
    841000   9.9979712     -1.3398372e+08 -2374.7384      1435.5003    
    842000   10.000969     -1.339837e+08  -2376.925       1435.5145    
    843000   10.000043     -1.3398366e+08 -2378.5402      1435.5288    
    844000   9.9985237     -1.3398363e+08 -2381.1137      1435.543     
    845000   9.9979022     -1.3398361e+08 -2383.3374      1435.5572    
    846000   9.9978547     -1.3398358e+08 -2386.5095      1435.5715    
    847000   9.9989426     -1.3398356e+08 -2388.6035      1435.5857    
    848000   9.9999894     -1.3398353e+08 -2393.0884      1435.6       
    849000   10.000017     -1.3398351e+08 -2394.7682      1435.6142    
    850000   9.999856      -1.3398347e+08 -2396.2453      1435.6285    
    851000   10.000839     -1.3398345e+08 -2397.5962      1435.6427    
    852000   10.000313     -1.339834e+08  -2401.3703      1435.6569    
    853000   10.002335     -1.3398338e+08 -2402.8447      1435.6712    
    854000   9.9993664     -1.3398334e+08 -2406.7107      1435.6854    
    855000   10.000296     -1.3398332e+08 -2408.481       1435.6997    
    856000   10.001753     -1.3398329e+08 -2413.0669      1435.7139    
    857000   9.9992679     -1.3398327e+08 -2414.4629      1435.7282    
    858000   10.003462     -1.3398324e+08 -2417.6973      1435.7424    
    859000   10.000708     -1.339832e+08  -2418.3926      1435.7566    
    860000   10.001693     -1.3398318e+08 -2421.6541      1435.7709    
    861000   10.000431     -1.3398315e+08 -2423.913       1435.7851    
    862000   9.9987553     -1.3398313e+08 -2427.811       1435.7994    
    863000   9.9983106     -1.3398311e+08 -2429.5457      1435.8136    
    864000   9.9997729     -1.3398308e+08 -2431.7534      1435.8278    
    865000   9.9992292     -1.3398305e+08 -2434.9075      1435.8421    
    866000   10.000407     -1.3398302e+08 -2437.243       1435.8563    
    867000   9.9979167     -1.3398298e+08 -2442.0114      1435.8706    
    868000   9.9983343     -1.3398296e+08 -2443.4027      1435.8848    
    869000   9.9986455     -1.3398293e+08 -2445.9528      1435.8991    
    870000   9.9984533     -1.3398291e+08 -2447.2378      1435.9133    
    871000   9.9982836     -1.3398288e+08 -2448.5699      1435.9275    
    872000   9.9982334     -1.3398285e+08 -2450.4567      1435.9418    
    873000   9.9986184     -1.3398282e+08 -2455.5824      1435.956     
    874000   9.9988364     -1.3398278e+08 -2457.2886      1435.9703    
    875000   10.000034     -1.3398276e+08 -2461.4198      1435.9845    
    876000   10.000532     -1.3398273e+08 -2462.4471      1435.9988    
    877000   10.001143     -1.3398271e+08 -2465.0278      1436.013     
    878000   9.9992074     -1.3398268e+08 -2468.0489      1436.0272    
    879000   9.9998307     -1.3398266e+08 -2470.7915      1436.0415    
    880000   9.9981859     -1.3398261e+08 -2474.7001      1436.0557    
    881000   9.998406      -1.3398259e+08 -2476.2484      1436.07      
    882000   9.9989757     -1.3398255e+08 -2479.3024      1436.0842    
    883000   9.9997512     -1.3398252e+08 -2481.3817      1436.0985    
    884000   10.001273     -1.3398251e+08 -2483.8935      1436.1127    
    885000   9.9997007     -1.3398248e+08 -2485.5533      1436.1269    
    886000   9.9994046     -1.3398245e+08 -2489.4531      1436.1412    
    887000   9.9994264     -1.3398241e+08 -2492.1864      1436.1554    
    888000   10.000935     -1.3398239e+08 -2494.6909      1436.1697    
    889000   9.9999998     -1.3398235e+08 -2497.818       1436.1839    
    890000   10.001844     -1.3398231e+08 -2500.1369      1436.1982    
    891000   10.001791     -1.3398229e+08 -2501.4973      1436.2124    
    892000   10.002992     -1.3398225e+08 -2501.5105      1436.2266    
    893000   9.9996482     -1.3398223e+08 -2505.3262      1436.2409    
    894000   10.001919     -1.3398222e+08 -2511.1312      1436.2551    
    895000   9.9982417     -1.3398217e+08 -2513.2701      1436.2694    
    896000   9.9990734     -1.3398214e+08 -2514.4764      1436.2836    
    897000   10.001145     -1.3398211e+08 -2514.758       1436.2978    
    898000   9.9987189     -1.3398209e+08 -2518.5553      1436.3121    
    899000   9.9989718     -1.3398206e+08 -2521.7299      1436.3263    
    900000   9.9982331     -1.3398204e+08 -2524.8596      1436.3406    
    901000   9.996611      -1.3398199e+08 -2527.2252      1436.3548    
    902000   10.000797     -1.3398198e+08 -2528.9113      1436.3691    
    903000   9.9987791     -1.3398194e+08 -2530.9236      1436.3833    
    904000   10.000516     -1.3398191e+08 -2534.0523      1436.3975    
    905000   9.9980899     -1.3398188e+08 -2537.621       1436.4118    
    906000   9.9979894     -1.3398185e+08 -2541.7884      1436.426     
    907000   10.000085     -1.3398183e+08 -2544.4757      1436.4403    
    908000   10.000289     -1.339818e+08  -2545.6353      1436.4545    
    909000   9.9995627     -1.3398176e+08 -2546.9222      1436.4688    
    910000   10.001594     -1.3398173e+08 -2549.3507      1436.483     
    911000   9.9998989     -1.339817e+08  -2551.431       1436.4972    
    912000   9.9995022     -1.3398168e+08 -2555.0355      1436.5115    
    913000   9.9995055     -1.3398164e+08 -2559.0438      1436.5257    
    914000   10.000201     -1.3398161e+08 -2562.0357      1436.54      
    915000   10.001486     -1.3398158e+08 -2565.3599      1436.5542    
    916000   9.9998433     -1.3398154e+08 -2565.6837      1436.5685    
    917000   10.001385     -1.3398152e+08 -2567.6653      1436.5827    
    918000   9.9998806     -1.3398148e+08 -2569.8042      1436.5969    
    919000   10.00259      -1.3398146e+08 -2573.4273      1436.6112    
    920000   10.001522     -1.3398143e+08 -2575.5786      1436.6254    
    921000   9.9997637     -1.339814e+08  -2579.6051      1436.6397    
    922000   9.9970697     -1.3398136e+08 -2581.2734      1436.6539    
    923000   9.9998176     -1.3398134e+08 -2583.1799      1436.6681    
    924000   10.000281     -1.339813e+08  -2584.1723      1436.6824    
    925000   10.001533     -1.3398127e+08 -2586.0423      1436.6966    
    926000   9.999864      -1.3398124e+08 -2589.9706      1436.7109    
    927000   9.9997887     -1.339812e+08  -2593.4719      1436.7251    
    928000   9.9992934     -1.3398118e+08 -2597.807       1436.7394    
    929000   10.00083      -1.3398117e+08 -2598.1945      1436.7536    
    930000   9.9982779     -1.3398114e+08 -2600.0122      1436.7678    
    931000   10.001089     -1.339811e+08  -2601.8434      1436.7821    
    932000   9.9999013     -1.3398107e+08 -2606.1279      1436.7963    
    933000   9.9992747     -1.3398104e+08 -2610.1281      1436.8106    
    934000   10.001804     -1.3398101e+08 -2613.2595      1436.8248    
    935000   9.9985296     -1.3398096e+08 -2614.5841      1436.8391    
    936000   10.002548     -1.3398095e+08 -2615.3769      1436.8533    
    937000   10.000648     -1.3398091e+08 -2619.9016      1436.8675    
    938000   10.001187     -1.3398088e+08 -2622.2432      1436.8818    
    939000   9.9996979     -1.3398085e+08 -2626.3244      1436.896     
    940000   10.000204     -1.3398082e+08 -2626.1308      1436.9103    
    941000   9.9994589     -1.3398079e+08 -2628.7598      1436.9245    
    942000   10.000588     -1.3398077e+08 -2631.8484      1436.9388    
    943000   9.9965382     -1.3398073e+08 -2635.7144      1436.953     
    944000   9.9986454     -1.339807e+08  -2637.745       1436.9672    
    945000   10.000281     -1.3398068e+08 -2639.5689      1436.9815    
    946000   9.998523      -1.3398064e+08 -2641.4209      1436.9957    
    947000   9.9994717     -1.3398062e+08 -2643.9862      1437.01      
    948000   9.9989445     -1.3398058e+08 -2647.2606      1437.0242    
    949000   9.9988155     -1.3398053e+08 -2649.6115      1437.0384    
    950000   10.000692     -1.3398051e+08 -2652.5944      1437.0527    
    951000   9.999792      -1.3398048e+08 -2655.0136      1437.0669    
    952000   10.000109     -1.3398046e+08 -2657.114       1437.0812    
    953000   9.9999099     -1.3398041e+08 -2659.0602      1437.0954    
    954000   9.9996045     -1.3398038e+08 -2662.9408      1437.1097    
    955000   9.9982711     -1.3398034e+08 -2665.2627      1437.1239    
    956000   10.000721     -1.3398032e+08 -2668.1345      1437.1381    
    957000   10.000507     -1.3398029e+08 -2670.4989      1437.1524    
    958000   10.002023     -1.3398025e+08 -2671.6433      1437.1666    
    959000   10.000848     -1.3398022e+08 -2674.5901      1437.1809    
    960000   10.001676     -1.3398019e+08 -2677.7447      1437.1951    
    961000   10.000114     -1.3398016e+08 -2680.4957      1437.2094    
    962000   9.9998007     -1.3398013e+08 -2683.2804      1437.2236    
    963000   10.001106     -1.339801e+08  -2685.5057      1437.2378    
    964000   10.002358     -1.3398008e+08 -2687.7489      1437.2521    
    965000   10.000912     -1.3398003e+08 -2689.5497      1437.2663    
    966000   9.9990948     -1.3398002e+08 -2692.9203      1437.2806    
    967000   9.9971269     -1.3397998e+08 -2694.7209      1437.2948    
    968000   10.000549     -1.3397995e+08 -2698.191       1437.3091    
    969000   10.000827     -1.3397992e+08 -2699.2909      1437.3233    
    970000   9.9994812     -1.3397988e+08 -2702.6921      1437.3375    
    971000   10.001911     -1.3397986e+08 -2705.273       1437.3518    
    972000   10.000401     -1.3397982e+08 -2708.3572      1437.366     
    973000   9.9997669     -1.3397979e+08 -2710.7532      1437.3803    
    974000   9.9988285     -1.3397976e+08 -2714.0812      1437.3945    
    975000   10.000834     -1.3397973e+08 -2716.6689      1437.4087    
    976000   10.000159     -1.3397969e+08 -2718.8385      1437.423     
    977000   10.000187     -1.3397966e+08 -2721.9848      1437.4372    
    978000   10.00012      -1.3397963e+08 -2723.8202      1437.4515    
    979000   9.9999648     -1.3397958e+08 -2726.34        1437.4657    
    980000   10.00088      -1.3397954e+08 -2728.8669      1437.48      
    981000   10.001057     -1.3397953e+08 -2731.13        1437.4942    
    982000   9.9988586     -1.3397949e+08 -2731.8556      1437.5084    
    983000   9.9992681     -1.3397946e+08 -2735.9286      1437.5227    
    984000   10.001142     -1.3397944e+08 -2738.2256      1437.5369    
    985000   9.9995164     -1.339794e+08  -2740.9789      1437.5512    
    986000   10.000016     -1.3397937e+08 -2743.2533      1437.5654    
    987000   9.9988823     -1.3397934e+08 -2747.5482      1437.5797    
    988000   10.000196     -1.339793e+08  -2749.2054      1437.5939    
    989000   10.001898     -1.3397928e+08 -2753.1893      1437.6081    
    990000   9.9995794     -1.3397923e+08 -2754.6569      1437.6224    
    991000   9.999049      -1.339792e+08  -2756.1809      1437.6366    
    992000   9.9997784     -1.3397918e+08 -2757.9773      1437.6509    
    993000   10.00155      -1.3397915e+08 -2760.9901      1437.6651    
    994000   10.001608     -1.3397911e+08 -2763.8748      1437.6794    
    995000   9.9997284     -1.3397908e+08 -2766.8561      1437.6936    
    996000   10.002382     -1.3397906e+08 -2768.3105      1437.7078    
    997000   10.000425     -1.3397901e+08 -2771.1056      1437.7221    
    998000   9.9989592     -1.3397898e+08 -2773.8012      1437.7363    
    999000   9.9977704     -1.3397894e+08 -2776.6768      1437.7506    
   1000000   10.000639     -1.3397892e+08 -2779.2744      1437.7648    
   1001000   9.9989364     -1.3397888e+08 -2782.8062      1437.7791    
   1002000   10.000697     -1.3397885e+08 -2785.7798      1437.7933    
   1003000   10.000736     -1.3397881e+08 -2787.3917      1437.8075    
   1004000   10.000425     -1.3397878e+08 -2790.7775      1437.8218    
   1005000   10.001231     -1.3397876e+08 -2793.0915      1437.836     
   1006000   9.9987801     -1.3397871e+08 -2793.8759      1437.8503    
   1007000   9.9980412     -1.3397868e+08 -2796.8676      1437.8645    
   1008000   9.9992649     -1.3397865e+08 -2799.5511      1437.8787    
   1009000   10.000475     -1.3397862e+08 -2801.6528      1437.893     
   1010000   9.9990043     -1.3397858e+08 -2804.7918      1437.9072    
   1011000   10.000375     -1.3397856e+08 -2807.9549      1437.9215    
   1012000   10.000034     -1.3397852e+08 -2811.257       1437.9357    
   1013000   9.9990427     -1.3397848e+08 -2814.1044      1437.95      
   1014000   9.9998241     -1.3397845e+08 -2816.0921      1437.9642    
   1015000   9.9982135     -1.3397841e+08 -2817.1643      1437.9784    
   1016000   9.9991897     -1.3397839e+08 -2818.6069      1437.9927    
   1017000   9.9994896     -1.3397835e+08 -2819.5264      1438.0069    
   1018000   10.000174     -1.3397832e+08 -2822.9931      1438.0212    
   1019000   9.9979914     -1.3397828e+08 -2827.5298      1438.0354    
   1020000   9.9999272     -1.3397826e+08 -2832.5337      1438.0497    
   1021000   9.9985451     -1.3397822e+08 -2832.4234      1438.0639    
   1022000   10.00083      -1.3397819e+08 -2834.3195      1438.0781    
   1023000   9.9989446     -1.3397815e+08 -2836.0672      1438.0924    
   1024000   10.000491     -1.3397812e+08 -2840.2213      1438.1066    
   1025000   9.9997705     -1.3397809e+08 -2843.0201      1438.1209    
   1026000   9.9977795     -1.3397805e+08 -2846.6067      1438.1351    
   1027000   9.9989527     -1.3397802e+08 -2847.896       1438.1494    
   1028000   9.9991924     -1.3397798e+08 -2849.5682      1438.1636    
   1029000   9.9990582     -1.3397796e+08 -2853.3165      1438.1778    
   1030000   9.9995819     -1.3397793e+08 -2854.2704      1438.1921    
   1031000   10.000154     -1.3397789e+08 -2857.324       1438.2063    
   1032000   9.9978718     -1.3397785e+08 -2859.7412      1438.2206    
   1033000   10.001903     -1.3397782e+08 -2864.6725      1438.2348    
   1034000   10.001881     -1.3397779e+08 -2867.9545      1438.249     
   1035000   10.001143     -1.3397775e+08 -2869.2079      1438.2633    
   1036000   9.9986117     -1.3397771e+08 -2870.6465      1438.2775    
[...]
   4797000   9.9988591     -1.3390169e+08 -5979.1516      1491.843     
   4798000   10.001115     -1.3390162e+08 -5980.2154      1491.8572    
   4799000   9.999783      -1.3390156e+08 -5984.0953      1491.8715    
   4800000   9.9979142     -1.3390148e+08 -5986.427       1491.8857    
   4801000   9.9990687     -1.3390142e+08 -5988.2518      1491.9       
   4802000   9.9987878     -1.3390135e+08 -5990.0928      1491.9142    
   4803000   9.9993453     -1.3390129e+08 -5992.3409      1491.9284    
   4804000   9.9980617     -1.3390122e+08 -5994.7859      1491.9427    
   4805000   9.9977869     -1.3390114e+08 -5994.9991      1491.9569    
   4806000   9.9984479     -1.3390108e+08 -5997.8092      1491.9712    
   4807000   9.9987727     -1.3390101e+08 -6001.1939      1491.9854    
   4808000   9.9987886     -1.3390094e+08 -6002.214       1491.9997    
   4809000   9.999635      -1.3390087e+08 -6006.9327      1492.0139    
   4810000   10.000508     -1.339008e+08  -6007.8903      1492.0281    
   4811000   10.000754     -1.3390073e+08 -6010.4976      1492.0424    
   4812000   9.9999415     -1.3390066e+08 -6011.6892      1492.0566    
   4813000   9.9996285     -1.3390059e+08 -6014.5851      1492.0709    
   4814000   9.9993564     -1.3390053e+08 -6014.8618      1492.0851    
   4815000   9.9996272     -1.3390045e+08 -6017.0498      1492.0994    
   4816000   9.9979955     -1.3390038e+08 -6018.4799      1492.1136    
   4817000   9.999982      -1.3390032e+08 -6021.8518      1492.1278    
   4818000   9.9980857     -1.3390025e+08 -6023.9021      1492.1421    
   4819000   9.9984623     -1.3390018e+08 -6027.9785      1492.1563    
   4820000   9.9999956     -1.3390011e+08 -6029.563       1492.1706    
   4821000   9.9986787     -1.3390004e+08 -6031.7014      1492.1848    
   4822000   9.9997371     -1.3389998e+08 -6032.7705      1492.1991    
   4823000   9.9991298     -1.338999e+08  -6033.9787      1492.2133    
   4824000   9.9996166     -1.3389983e+08 -6035.8011      1492.2275    
   4825000   9.9989231     -1.3389976e+08 -6040.3654      1492.2418    
   4826000   9.9990026     -1.3389969e+08 -6042.3291      1492.256     
   4827000   9.9986635     -1.3389962e+08 -6043.8954      1492.2703    
   4828000   10.001417     -1.3389956e+08 -6044.5148      1492.2845    
   4829000   9.9992028     -1.3389948e+08 -6047.8249      1492.2988    
   4830000   9.999604      -1.3389941e+08 -6050.2834      1492.313     
   4831000   9.9993684     -1.3389934e+08 -6053.9019      1492.3272    
   4832000   10.000648     -1.3389928e+08 -6054.3259      1492.3415    
   4833000   10.001159     -1.338992e+08  -6056.5254      1492.3557    
   4834000   9.9970654     -1.3389913e+08 -6057.5236      1492.37      
   4835000   9.9986992     -1.3389908e+08 -6059.7882      1492.3842    
   4836000   9.9979161     -1.3389899e+08 -6062.2203      1492.3984    
   4837000   9.9970626     -1.3389893e+08 -6065.2026      1492.4127    
   4838000   9.998133      -1.3389886e+08 -6068.2569      1492.4269    
   4839000   9.9981088     -1.3389879e+08 -6069.572       1492.4412    
   4840000   10.001203     -1.3389872e+08 -6069.5451      1492.4554    
   4841000   10.001091     -1.3389865e+08 -6071.3822      1492.4697    
   4842000   10.000026     -1.3389858e+08 -6073.6668      1492.4839    
   4843000   9.9967746     -1.338985e+08  -6077.6648      1492.4981    
   4844000   10.000578     -1.3389844e+08 -6080.6826      1492.5124    
   4845000   10.000378     -1.3389838e+08 -6084.2616      1492.5266    
   4846000   9.9990957     -1.338983e+08  -6084.9772      1492.5409    
   4847000   9.9991386     -1.3389822e+08 -6086.1574      1492.5551    
   4848000   10.001212     -1.3389816e+08 -6086.6071      1492.5694    
   4849000   10.000138     -1.338981e+08  -6089.8976      1492.5836    
   4850000   9.9999547     -1.3389802e+08 -6093.5022      1492.5978    
   4851000   9.9993631     -1.3389795e+08 -6095.246       1492.6121    
   4852000   9.9981652     -1.3389787e+08 -6098.1594      1492.6263    
   4853000   9.9981999     -1.3389781e+08 -6098.7303      1492.6406    
   4854000   9.9996513     -1.3389775e+08 -6101.7943      1492.6548    
   4855000   9.9992291     -1.3389768e+08 -6103.9334      1492.6691    
   4856000   9.9991521     -1.338976e+08  -6105.6471      1492.6833    
   4857000   9.9984882     -1.3389753e+08 -6107.5357      1492.6975    
   4858000   9.9989839     -1.3389746e+08 -6109.9913      1492.7118    
   4859000   9.9987026     -1.3389739e+08 -6111.4688      1492.726     
   4860000   10.000005     -1.3389733e+08 -6112.9886      1492.7403    
   4861000   9.997648      -1.3389725e+08 -6117.272       1492.7545    
   4862000   9.9990539     -1.3389719e+08 -6118.7292      1492.7687    
   4863000   9.9973963     -1.3389711e+08 -6121.9524      1492.783     
   4864000   10.000318     -1.3389705e+08 -6122.2602      1492.7972    
   4865000   10.000662     -1.3389697e+08 -6126.4693      1492.8115    
   4866000   10.000359     -1.3389689e+08 -6126.6646      1492.8257    
   4867000   9.9984752     -1.3389682e+08 -6130.0435      1492.84      
   4868000   9.9994563     -1.3389676e+08 -6131.0229      1492.8542    
   4869000   9.9999399     -1.3389669e+08 -6133.4897      1492.8684    
   4870000   9.9994727     -1.3389662e+08 -6135.5519      1492.8827    
   4871000   9.9986877     -1.3389654e+08 -6138.892       1492.8969    
   4872000   9.9985427     -1.3389647e+08 -6139.9805      1492.9112    
   4873000   10.000282     -1.338964e+08  -6141.0941      1492.9254    
   4874000   10.000521     -1.3389633e+08 -6143.6151      1492.9397    
   4875000   10.002332     -1.3389627e+08 -6145.9578      1492.9539    
   4876000   10.000434     -1.338962e+08  -6148.0126      1492.9681    
   4877000   9.9985683     -1.3389612e+08 -6149.5039      1492.9824    
   4878000   9.9988151     -1.3389605e+08 -6151.9669      1492.9966    
   4879000   9.9994789     -1.3389597e+08 -6154.3772      1493.0109    
   4880000   10.002601     -1.3389592e+08 -6156.9129      1493.0251    
   4881000   10.001251     -1.3389585e+08 -6159.0813      1493.0394    
   4882000   10.002439     -1.3389578e+08 -6161.3701      1493.0536    
   4883000   10.001471     -1.338957e+08  -6163.5684      1493.0678    
   4884000   10.000667     -1.3389563e+08 -6164.6644      1493.0821    
   4885000   10.000582     -1.3389557e+08 -6166.2628      1493.0963    
   4886000   9.9984652     -1.3389549e+08 -6168.159       1493.1106    
   4887000   9.9987235     -1.3389542e+08 -6171.2197      1493.1248    
   4888000   9.9998947     -1.3389535e+08 -6174.0749      1493.139     
   4889000   9.9997561     -1.3389528e+08 -6176.7056      1493.1533    
   4890000   10.001187     -1.3389521e+08 -6177.4098      1493.1675    
   4891000   9.9992827     -1.3389514e+08 -6179.3528      1493.1818    
   4892000   10.000958     -1.3389507e+08 -6183.1492      1493.196     
   4893000   9.9988383     -1.33895e+08   -6186.4324      1493.2103    
   4894000   9.9990108     -1.3389492e+08 -6187.7935      1493.2245    
   4895000   10.001079     -1.3389485e+08 -6188.1927      1493.2387    
   4896000   9.9980955     -1.3389477e+08 -6189.6178      1493.253     
   4897000   9.9988792     -1.3389472e+08 -6191.5935      1493.2672    
   4898000   9.9979701     -1.3389465e+08 -6194.7752      1493.2815    
   4899000   9.9977071     -1.3389457e+08 -6197.6441      1493.2957    
   4900000   9.9991426     -1.338945e+08  -6201.1504      1493.31      
   4901000   9.9992674     -1.3389443e+08 -6201.2371      1493.3242    
   4902000   9.9997371     -1.3389435e+08 -6203.3756      1493.3384    
   4903000   10.000464     -1.3389429e+08 -6205.4893      1493.3527    
   4904000   9.9984127     -1.3389421e+08 -6209.009       1493.3669    
   4905000   10.000026     -1.3389414e+08 -6209.8345      1493.3812    
   4906000   10.000551     -1.3389406e+08 -6212.8648      1493.3954    
   4907000   9.9985611     -1.33894e+08   -6214.7641      1493.4097    
   4908000   9.9997455     -1.3389393e+08 -6216.262       1493.4239    
   4909000   9.9998247     -1.3389385e+08 -6217.619       1493.4381    
   4910000   9.9992701     -1.3389378e+08 -6221.4663      1493.4524    
   4911000   9.9995841     -1.3389371e+08 -6222.6293      1493.4666    
   4912000   9.9998788     -1.3389364e+08 -6223.9196      1493.4809    
   4913000   9.9988432     -1.3389357e+08 -6225.3457      1493.4951    
   4914000   10.001279     -1.338935e+08  -6229.9272      1493.5093    
   4915000   10.000991     -1.3389343e+08 -6230.2644      1493.5236    
   4916000   10.001227     -1.3389336e+08 -6232.8767      1493.5378    
   4917000   10.000485     -1.3389328e+08 -6236.2366      1493.5521    
   4918000   10.000232     -1.338932e+08  -6237.6787      1493.5663    
   4919000   10.001223     -1.3389313e+08 -6239.54        1493.5806    
   4920000   10.000466     -1.3389307e+08 -6241.0539      1493.5948    
   4921000   10.001721     -1.33893e+08   -6243.7811      1493.609     
   4922000   9.997709      -1.3389291e+08 -6246.4957      1493.6233    
   4923000   9.9977843     -1.3389284e+08 -6250.0208      1493.6375    
   4924000   10.001256     -1.3389279e+08 -6250.4098      1493.6518    
   4925000   9.9997619     -1.3389271e+08 -6250.3557      1493.666     
   4926000   10.003016     -1.3389266e+08 -6250.6616      1493.6803    
   4927000   10.000142     -1.3389257e+08 -6253.7961      1493.6945    
   4928000   10.001001     -1.3389251e+08 -6258.0354      1493.7087    
   4929000   10.000032     -1.3389242e+08 -6261.3288      1493.723     
   4930000   9.9993147     -1.3389234e+08 -6264.8426      1493.7372    
   4931000   10.001567     -1.3389228e+08 -6265.4097      1493.7515    
   4932000   9.997718      -1.3389219e+08 -6266.9915      1493.7657    
   4933000   10.000226     -1.3389214e+08 -6269.8932      1493.78      
   4934000   10.000335     -1.3389206e+08 -6272.7572      1493.7942    
   4935000   9.9997534     -1.3389198e+08 -6273.9119      1493.8084    
   4936000   9.9998057     -1.3389192e+08 -6273.6193      1493.8227    
   4937000   9.9984445     -1.3389185e+08 -6275.7938      1493.8369    
   4938000   9.9994724     -1.3389178e+08 -6277.5334      1493.8512    
   4939000   9.9976554     -1.3389171e+08 -6281.2908      1493.8654    
   4940000   9.9985769     -1.3389164e+08 -6284.2084      1493.8797    
   4941000   9.9976644     -1.3389156e+08 -6287.2863      1493.8939    
   4942000   9.9975741     -1.3389149e+08 -6288.4937      1493.9081    
   4943000   9.9956282     -1.3389141e+08 -6290.9395      1493.9224    
   4944000   9.9977352     -1.3389134e+08 -6293.4825      1493.9366    
   4945000   9.9977194     -1.3389127e+08 -6295.9295      1493.9509    
   4946000   9.9995485     -1.338912e+08  -6297.6741      1493.9651    
   4947000   10.000885     -1.3389113e+08 -6298.3507      1493.9793    
   4948000   10.000532     -1.3389105e+08 -6300.6601      1493.9936    
   4949000   10.000658     -1.3389098e+08 -6302.0255      1494.0078    
   4950000   9.9988582     -1.338909e+08  -6305.5551      1494.0221    
   4951000   10.000676     -1.3389083e+08 -6307.1877      1494.0363    
   4952000   10.000029     -1.3389074e+08 -6309.8532      1494.0506    
   4953000   10.002559     -1.3389069e+08 -6309.5929      1494.0648    
   4954000   10.000585     -1.3389061e+08 -6311.0952      1494.079     
   4955000   10.001497     -1.3389054e+08 -6314.8709      1494.0933    
   4956000   10.000902     -1.3389047e+08 -6317.8728      1494.1075    
   4957000   10.000383     -1.338904e+08  -6320.5739      1494.1218    
   4958000   9.9985341     -1.3389033e+08 -6323.0964      1494.136     
   4959000   9.9980118     -1.3389025e+08 -6325.186       1494.1503    
   4960000   10.001449     -1.3389018e+08 -6327.1153      1494.1645    
   4961000   10.000773     -1.338901e+08  -6327.7969      1494.1787    
   4962000   9.999422      -1.3389003e+08 -6330.1562      1494.193     
   4963000   10.001452     -1.3388996e+08 -6334.0602      1494.2072    
   4964000   10.001354     -1.3388989e+08 -6335.8052      1494.2215    
   4965000   10.00159      -1.3388982e+08 -6336.2971      1494.2357    
   4966000   10.000752     -1.3388975e+08 -6338.1324      1494.25      
   4967000   9.9983676     -1.3388967e+08 -6340.0734      1494.2642    
   4968000   9.9991732     -1.3388959e+08 -6342.1216      1494.2784    
   4969000   10.000178     -1.3388952e+08 -6345.2385      1494.2927    
   4970000   9.9985729     -1.3388945e+08 -6347.118       1494.3069    
   4971000   9.9986592     -1.3388937e+08 -6348.7871      1494.3212    
   4972000   9.9988623     -1.3388931e+08 -6350.7207      1494.3354    
   4973000   9.9991177     -1.3388924e+08 -6352.8954      1494.3496    
   4974000   9.9977131     -1.3388915e+08 -6354.4983      1494.3639    
   4975000   9.9990674     -1.3388908e+08 -6357.2158      1494.3781    
   4976000   10.001664     -1.3388901e+08 -6359.6954      1494.3924    
   4977000   9.9993776     -1.3388894e+08 -6362.6057      1494.4066    
   4978000   10.000559     -1.3388887e+08 -6364.4355      1494.4209    
   4979000   10.000388     -1.3388879e+08 -6367.6843      1494.4351    
   4980000   9.9998948     -1.3388871e+08 -6367.0432      1494.4493    
   4981000   10.00096      -1.3388864e+08 -6369.7458      1494.4636    
   4982000   10.000231     -1.3388857e+08 -6372.7028      1494.4778    
   4983000   10.001039     -1.338885e+08  -6375.3014      1494.4921    
   4984000   10.001558     -1.3388843e+08 -6376.943       1494.5063    
   4985000   10.000661     -1.3388836e+08 -6378.7061      1494.5206    
   4986000   9.9987617     -1.3388828e+08 -6381.2494      1494.5348    
   4987000   10.000154     -1.338882e+08  -6384.3138      1494.549     
   4988000   10.00139      -1.3388812e+08 -6385.2448      1494.5633    
   4989000   10.0018       -1.3388805e+08 -6386.7318      1494.5775    
   4990000   10.000714     -1.3388798e+08 -6389.2299      1494.5918    
   4991000   10.000849     -1.3388791e+08 -6390.0411      1494.606     
   4992000   9.9998088     -1.3388783e+08 -6392.6963      1494.6203    
   4993000   10.000485     -1.3388776e+08 -6393.9638      1494.6345    
   4994000   9.9996214     -1.3388769e+08 -6398.0695      1494.6487    
   4995000   10.001086     -1.3388762e+08 -6400.2233      1494.663     
   4996000   10.000248     -1.3388754e+08 -6401.4271      1494.6772    
   4997000   10.000756     -1.3388747e+08 -6401.8447      1494.6915    
   4998000   9.999361      -1.3388741e+08 -6404.4246      1494.7057    
   4999000   10.001571     -1.3388733e+08 -6406.813       1494.7199    
   5000000   10.000909     -1.3388726e+08 -6410.7371      1494.7342    
   5001000   9.9973212     -1.3388716e+08 -6412.8552      1494.7484    
   5002000   9.9994499     -1.338871e+08  -6414.2681      1494.7627    
   5003000   9.9988237     -1.3388704e+08 -6416.6163      1494.7769    
   5004000   9.997372      -1.3388696e+08 -6419.2603      1494.7912    
   5005000   9.9979798     -1.3388687e+08 -6420.8244      1494.8054    
   5006000   10.004324     -1.3388684e+08 -6420.6393      1494.8196    
   5007000   10.012623     -1.3388684e+08 -6418.2721      1494.8339    
   5008000   10.027502     -1.3388693e+08 -6415.9623      1494.8481    
   5009000   10.05305      -1.3388713e+08 -6409.7412      1494.8624    
   5010000   10.072358     -1.338874e+08  -6400.3853      1494.8766    
   5011000   10.1003       -1.338878e+08  -6384.1343      1494.8909    
   5012000   10.124077     -1.3388828e+08 -6364.0416      1494.9051    
   5013000   10.145938     -1.3388884e+08 -6348.2681      1494.9193    
   5014000   10.147874     -1.3388935e+08 -6339.0764      1494.9336    
   5015000   10.15084      -1.3388988e+08 -6326.9727      1494.9478    
   5016000   10.152782     -1.3389041e+08 -6315.6841      1494.9621    
   5017000   10.154454     -1.3389095e+08 -6302.1952      1494.9763    
   5018000   10.13578      -1.3389138e+08 -6293.2606      1494.9906    
   5019000   10.093535     -1.3389156e+08 -6295.9389      1495.0048    
   5020000   10.064275     -1.3389166e+08 -6308.816       1495.019     
   5021000   10.042212     -1.3389168e+08 -6319.1111      1495.0333    
   5022000   10.028849     -1.3389169e+08 -6321.5974      1495.0475    
   5023000   10.016866     -1.3389165e+08 -6322.3628      1495.0618    
   5024000   10.014198     -1.3389164e+08 -6324.5631      1495.076     
   5025000   10.005476     -1.3389157e+08 -6329.4882      1495.0902    
   5026000   10.004996     -1.338915e+08  -6332.1327      1495.1045    
   5027000   10.002577     -1.3389145e+08 -6334.4142      1495.1187    
   5028000   10.003587     -1.3389138e+08 -6336.5239      1495.133     
   5029000   10.001943     -1.3389132e+08 -6338.3153      1495.1472    
   5030000   10.000518     -1.3389124e+08 -6338.5384      1495.1615    
   5031000   10.002078     -1.3389118e+08 -6341.9882      1495.1757    
   5032000   9.9989272     -1.3389109e+08 -6344.2584      1495.1899    
   5033000   10.003837     -1.3389103e+08 -6346.1442      1495.2042    
   5034000   10.000598     -1.3389095e+08 -6348.675       1495.2184    
   5035000   10.000066     -1.3389089e+08 -6349.3923      1495.2327    
   5036000   10.000702     -1.3389081e+08 -6352.9905      1495.2469    
   5037000   10.00009      -1.3389074e+08 -6353.6743      1495.2612    
   5038000   10.001721     -1.3389068e+08 -6357.0936      1495.2754    
   5039000   9.9981485     -1.338906e+08  -6359.351       1495.2896    
   5040000   9.998523      -1.3389053e+08 -6361.4027      1495.3039    
   5041000   9.9992593     -1.3389045e+08 -6362.7873      1495.3181    
   5042000   9.9979557     -1.3389037e+08 -6366.275       1495.3324    
   5043000   9.9988075     -1.3389031e+08 -6368.2439      1495.3466    
   5044000   9.9981428     -1.3389023e+08 -6370.1042      1495.3609    
   5045000   10.000221     -1.3389016e+08 -6370.8627      1495.3751    
   5046000   10.001856     -1.3389009e+08 -6373.4584      1495.3893    
   5047000   9.9994743     -1.3389e+08    -6378.0733      1495.4036    
   5048000   9.9998702     -1.3388994e+08 -6380.9616      1495.4178    
   5049000   9.9994527     -1.3388985e+08 -6382.3924      1495.4321    
   5050000   10.000051     -1.3388979e+08 -6384.2185      1495.4463    
Loop time of 52284.7 on 32 procs for 5000000 steps with 37948320 atoms

Performance: 16.525 ns/day, 1.452 hours/ns, 95.630 timesteps/s
71.5% CPU use with 32 MPI tasks x 1 OpenMP threads

MPI task timing breakdown:
Section |  min time  |  avg time  |  max time  |%varavg| %total
---------------------------------------------------------------
Pair    | 19333      | 19390      | 19451      |  21.6 | 37.09
Neigh   | 44.403     | 68.419     | 95.822     | 175.5 |  0.13
Comm    | 3382.9     | 3422.1     | 3478.7     |  43.8 |  6.55
Output  | 6.7027     | 50.153     | 87.063     | 382.4 |  0.10
Modify  | 15541      | 21635      | 27990      |3798.6 | 41.38
Other   |            | 7719       |            |       | 14.76

Nlocal:    1.18588e+06 ave 1.58917e+06 max      781688 min
Histogram: 8 8 0 0 0 0 0 0 8 8
Nghost:         185943 ave      226089 max      146018 min
Histogram: 8 8 0 0 0 0 0 0 8 8
Neighs:    8.46329e+07 ave 1.13291e+08 max 5.58699e+07 min
Histogram: 8 8 0 0 0 0 0 0 8 8
FullNghs:            0 ave           0 max           0 min
Histogram: 32 0 0 0 0 0 0 0 0 0

Total # of neighbors = 2.7082538e+09
Ave neighs/atom = 71.366896
Neighbor list builds = 1703
Dangerous builds = 0
#minimize 0 1.0e-3 100000 100000
unfix 2
#undump shear
#undump defect
unfix ensemble
unfix 1
variable Tf equal ${temp}-200
variable Tf equal 10-200
fix 1 all langevin ${temp} ${Tf} 5 100
fix 1 all langevin 10 ${Tf} 5 100
fix 1 all langevin 10 -190 5 100
fix ensemble all nve
#run 5000000

#next a
#jump in.shear loop



#########################################################
######################################
# SIMULATION DONE
print "All done"
All done

Total wall time: 14:42:59
