LAMMPS (23 Jun 2022)
KOKKOS mode is enabled (src/KOKKOS/kokkos.cpp:105)
  will use up to 4 GPU(s) per node
  using 1 OpenMP thread(s) per MPI task
package kokkos
package kokkos neigh half newton off
#LAMMPS input file

# ------------------------ INITIALIZATION ----------------------------
processors    * * *
units         metal
dimension    3
boundary    p    p    p
atom_style   charge
atom_modify map array sort 0 1

#--------------------------- LAMMPS Data File--------------------------

read_data    relaxed_step.lmp #reset_relaxed.lmp # model_4.lmp # pre_strained.lmp # High_sep_Cu_45.lmp # Cu_111_FR_45_MIN.lmp
Reading data file ...
  orthogonal box = (-314.8477 -522.43942 600) to (1109.3869 540.14923 1100)
  4 by 4 by 2 MPI processor grid
  reading atoms ...
  37948320 atoms
  reading velocities ...
  37948320 velocities
  read_data CPU = 135.623 seconds
#read_dump   dump.min_1862000.lammpstrj 1862000 x y z vx vy vz
variable  temp equal 150
variable  temp_init equal ${temp}*2
variable  temp_init equal 150*2
variable  sratex equal 5e-6 # in 1/ps (0.5 strain after 10ns)
# ------------------------ FORCE FIELDS ------------------------------
pair_style    eam/alloy
pair_coeff    * * Cu01.eam.alloy.txt Cu # Cu

#------------------------- SETTINGS ---------------------------------

#change_box        all x scale 1.015 remap units box

compute csym all centro/atom fcc
#compute peratom all pe/atom

# compute stresses
#compute       sf all stress/atom NULL

#-------------For Lorentz Forces from QEq----------------------------
# Apply forces
#variable qfx atomfile input_fx_new.txt
#variable qfy atomfile input_fy_new.txt
#variable qfz atomfile input_fz_new.txt
#variable qe atom  -(x*v_qfx+y*v_qfy+z*v_qfz)

#fix force_q1 all addforce v_qfx v_qfy v_qfz energy v_qe
#fix_modify force_q1 energy yes

#delete_atoms group exclude
#fix freez hold setforce 0 0 0
#fix_modify force_q2 energy yes
thermo 1000
thermo_style custom step temp pe press lx
thermo_modify flush yes
#min_style fire
#minimize 0.0 1e-4 100000 100000
#--------Thermal Relax---------------------------
velocity all create ${temp_init} 300 rot no dist gaussian
velocity all create 300 300 rot no dist gaussian
timestep  0.002
fix 1 all langevin ${temp} ${temp} 5 300
fix 1 all langevin 150 ${temp} 5 300
fix 1 all langevin 150 150 5 300
fix ensemble all nve
run 50000
Neighbor list info ...
  update every 1 steps, delay 10 steps, check yes
  max neighbors/atom: 2000, page size: 100000
  master list distance cutoff = 7.506786
  ghost atom cutoff = 7.506786
  binsize = 7.506786, bins = 190 142 67
  2 neighbor lists, perpetual/occasional/extra = 1 1 0
  (1) pair eam/alloy/kk, perpetual
      attributes: half, newton off, kokkos_device
      pair build: half/bin/kk/device
      stencil: full/bin/3d
      bin: kk/device
  (2) compute centro/atom, occasional
      attributes: full, newton off
      pair build: full/bin/atomonly
      stencil: full/bin/3d
      bin: standard
Per MPI rank memory allocation (min/avg/max) = 419 | 460.3 | 502.1 Mbytes
   Step          Temp          PotEng         Press            Lx      
         0   300           -1.3404495e+08  1734.3562      1424.2346    
      1000   150.12496     -1.3331003e+08  2976.2798      1424.2346    
      2000   149.61454     -1.3330733e+08  1029.4619      1424.2346    
      3000   149.0611      -1.3330194e+08 -601.88702      1424.2346    
      4000   149.70476     -1.3330273e+08  160.96994      1424.2346    
      5000   150.10067     -1.3330449e+08  1076.977       1424.2346    
      6000   150.24647     -1.3330573e+08  1901.7749      1424.2346    
      7000   150.05712     -1.3330568e+08  1605.9038      1424.2346    
      8000   149.92033     -1.33305e+08    1105.8503      1424.2346    
      9000   149.77982     -1.3330385e+08  627.89426      1424.2346    
     10000   149.88003     -1.3330354e+08  673.37661      1424.2346    
     11000   150.01794     -1.3330398e+08  955.08285      1424.2346    
     12000   150.0864      -1.3330444e+08  1246.9434      1424.2346    
     13000   150.06107     -1.3330455e+08  1307.659       1424.2346    
     14000   150.01764     -1.333045e+08   1189.3859      1424.2346    
     15000   149.95563     -1.3330402e+08  1041.1176      1424.2346    
     16000   149.96466     -1.3330409e+08  985.58811      1424.2346    
     17000   149.9913      -1.3330415e+08  1048.6693      1424.2346    
     18000   150.04235     -1.333042e+08   1118.9934      1424.2346    
     19000   150.03529     -1.3330424e+08  1153.11        1424.2346    
     20000   150.027       -1.3330432e+08  1120.8215      1424.2346    
     21000   150.02042     -1.3330431e+08  1075.1719      1424.2346    
     22000   149.9623      -1.3330414e+08  1050.5496      1424.2346    
     23000   149.98467     -1.3330414e+08  1063.9159      1424.2346    
     24000   150.00035     -1.3330428e+08  1081.6831      1424.2346    
     25000   149.97844     -1.3330412e+08  1102.8304      1424.2346    
     26000   150.00953     -1.3330432e+08  1091.946       1424.2346    
     27000   149.97502     -1.3330433e+08  1082.4065      1424.2346    
     28000   149.98001     -1.3330434e+08  1076.7256      1424.2346    
     29000   149.97938     -1.3330435e+08  1083.7407      1424.2346    
     30000   149.99814     -1.333043e+08   1084.2344      1424.2346    
     31000   150.00134     -1.3330431e+08  1090.4192      1424.2346    
     32000   149.99599     -1.3330429e+08  1087.6336      1424.2346    
     33000   149.98196     -1.3330421e+08  1091.7696      1424.2346    
     34000   150.00459     -1.3330429e+08  1082.1286      1424.2346    
     35000   149.94433     -1.333042e+08   1090.1428      1424.2346    
     36000   150.01184     -1.333044e+08   1088.3919      1424.2346    
     37000   150.00963     -1.3330428e+08  1084.9211      1424.2346    
     38000   150.02406     -1.3330417e+08  1082.4544      1424.2346    
     39000   150.0017      -1.3330405e+08  1084.2261      1424.2346    
     40000   150.00676     -1.3330412e+08  1083.562       1424.2346    
     41000   149.9987      -1.3330417e+08  1082.0965      1424.2346    
     42000   149.97683     -1.3330412e+08  1083.0456      1424.2346    
     43000   150.00321     -1.3330416e+08  1085.1174      1424.2346    
     44000   150.03164     -1.3330422e+08  1083.3106      1424.2346    
     45000   150.0254      -1.3330411e+08  1089.8651      1424.2346    
     46000   150.00778     -1.333042e+08   1092.3818      1424.2346    
     47000   150.0216      -1.3330425e+08  1091.3907      1424.2346    
     48000   150.05177     -1.3330431e+08  1088.1098      1424.2346    
     49000   150.03974     -1.3330419e+08  1079.6497      1424.2346    
     50000   150.00721     -1.333041e+08   1081.4065      1424.2346    
Loop time of 585.58 on 32 procs for 50000 steps with 37948320 atoms

Performance: 14.755 ns/day, 1.627 hours/ns, 85.385 timesteps/s
71.4% CPU use with 32 MPI tasks x 1 OpenMP threads

MPI task timing breakdown:
Section |  min time  |  avg time  |  max time  |%varavg| %total
---------------------------------------------------------------
Pair    | 213.91     | 218.89     | 222.98     |  20.0 | 37.38
Neigh   | 5.3867     | 9.1627     | 13.623     |  90.0 |  1.56
Comm    | 34.943     | 37.555     | 40.036     |  36.7 |  6.41
Output  | 0.013887   | 0.57446    | 1.1334     |  52.5 |  0.10
Modify  | 172.47     | 241.12     | 307.86     | 418.3 | 41.18
Other   |            | 78.28      |            |       | 13.37

Nlocal:    1.18588e+06 ave 1.50799e+06 max      852498 min
Histogram: 16 0 0 0 0 0 0 0 0 16
Nghost:         185762 ave      218609 max      152088 min
Histogram: 16 0 0 0 0 0 0 0 0 16
Neighs:    8.48004e+07 ave 1.07837e+08 max 6.09592e+07 min
Histogram: 16 0 0 0 0 0 0 0 0 16
FullNghs:            0 ave           0 max           0 min
Histogram: 32 0 0 0 0 0 0 0 0 0

Total # of neighbors = 2.7136138e+09
Ave neighs/atom = 71.508142
Neighbor list builds = 201
Dangerous builds = 0
unfix ensemble
write_data ${temp}_relaxed_config.lmp
write_data 150_relaxed_config.lmp
System init for write_data ...
#unfix freez
######################################
## NVT Langevin ##
#variable a loop 50
#label loop

#variable Ti equal ${temp}+($a-1)*4
#variable Tf equal ${temp}+$a*4
#reset_ids
#change_box all x scale ${eps} remap units box
fix        2 all deform 1 x erate ${sratex} units box remap x
fix        2 all deform 1 x erate 5e-06 units box remap x
#fix 1 all langevin ${temp} ${temp} 5 98

# Write dump file
#dump        shear all custom 500000 dump.min_*.lammpstrj id x y z # vx vy vz

#dump        defect all custom 100 dump.defect_*.lammpstrj id x y z c_csym
#dump_modify defect thresh c_csym <= 10 thresh c_csym > 4

fix         ensemble all nve
run 5000000
Per MPI rank memory allocation (min/avg/max) = 419 | 460.3 | 502.1 Mbytes
   Step          Temp          PotEng         Press            Lx      
     50000   150.00721     -1.333041e+08   1081.4065      1424.2346    
     51000   149.93768     -1.3330415e+08  1080.3115      1424.2488    
     52000   149.9763      -1.3330423e+08  1075.8532      1424.2631    
     53000   149.99666     -1.3330411e+08  1084.086       1424.2773    
     54000   150.00605     -1.3330422e+08  1078.0223      1424.2915    
     55000   149.99226     -1.3330428e+08  1077.0792      1424.3058    
     56000   150.01235     -1.3330428e+08  1060.4392      1424.32      
     57000   149.99812     -1.3330425e+08  1060.2424      1424.3343    
     58000   149.98229     -1.333043e+08   1049.3621      1424.3485    
     59000   149.97743     -1.3330431e+08  1057.0512      1424.3628    
     60000   149.98406     -1.3330426e+08  1056.7568      1424.377     
     61000   149.98425     -1.3330425e+08  1059.7475      1424.3912    
     62000   149.96964     -1.3330419e+08  1046.2856      1424.4055    
     63000   149.99439     -1.3330416e+08  1044.8883      1424.4197    
     64000   149.99537     -1.3330402e+08  1038.1932      1424.434     
     65000   150.03418     -1.3330426e+08  1035.878       1424.4482    
     66000   150.04296     -1.3330406e+08  1039.1692      1424.4625    
     67000   149.98812     -1.3330404e+08  1045.6495      1424.4767    
     68000   149.96504     -1.3330411e+08  1034.3066      1424.4909    
     69000   149.95641     -1.3330416e+08  1025.983       1424.5052    
     70000   149.97629     -1.3330418e+08  1026.4289      1424.5194    
     71000   150.00397     -1.3330404e+08  1023.258       1424.5337    
     72000   149.99099     -1.3330403e+08  1025.8875      1424.5479    
     73000   150.03248     -1.3330435e+08  1019.4843      1424.5622    
     74000   150.00621     -1.3330405e+08  1013.8115      1424.5764    
     75000   149.97259     -1.3330407e+08  1009.2564      1424.5906    
     76000   150.00325     -1.3330411e+08  1013.627       1424.6049    
     77000   150.00253     -1.3330404e+08  1013.537       1424.6191    
     78000   150.01278     -1.3330403e+08  1004.4194      1424.6334    
     79000   149.9907      -1.3330408e+08  995.44054      1424.6476    
     80000   150.03705     -1.3330412e+08  993.40669      1424.6618    
     81000   150.01274     -1.3330402e+08  1001.6507      1424.6761    
     82000   150.02282     -1.3330408e+08  999.91286      1424.6903    
     83000   150.01266     -1.3330406e+08  996.10641      1424.7046    
     84000   149.98293     -1.3330397e+08  983.6386       1424.7188    
     85000   149.99351     -1.3330413e+08  980.51311      1424.7331    
     86000   149.99006     -1.333042e+08   977.98266      1424.7473    
     87000   150.01473     -1.3330425e+08  984.54705      1424.7615    
     88000   150.00449     -1.3330415e+08  976.12245      1424.7758    
     89000   150.00599     -1.3330412e+08  972.84794      1424.79      
     90000   150.03977     -1.3330407e+08  975.53631      1424.8043    
     91000   150.00645     -1.3330407e+08  977.3745       1424.8185    
     92000   149.99089     -1.3330389e+08  972.98984      1424.8328    
     93000   149.98418     -1.3330408e+08  966.44181      1424.847     
     94000   150.00343     -1.3330411e+08  959.04895      1424.8612    
     95000   150.0292      -1.3330421e+08  951.3073       1424.8755    
     96000   149.99735     -1.3330408e+08  953.9662       1424.8897    
     97000   150.00194     -1.3330394e+08  948.99763      1424.904     
     98000   149.99187     -1.3330388e+08  948.61233      1424.9182    
     99000   150.03102     -1.333041e+08   946.11825      1424.9325    
    100000   150.0303      -1.3330403e+08  941.1103       1424.9467    
    101000   150.00248     -1.3330393e+08  935.03165      1424.9609    
    102000   150.01827     -1.3330395e+08  929.24095      1424.9752    
    103000   150.01698     -1.3330389e+08  936.2931       1424.9894    
    104000   150.02791     -1.3330405e+08  932.41394      1425.0037    
    105000   150.02437     -1.3330394e+08  935.22947      1425.0179    
    106000   150.01216     -1.3330391e+08  929.14483      1425.0322    
    107000   150.02071     -1.3330385e+08  924.26056      1425.0464    
    108000   150.00848     -1.3330397e+08  918.08962      1425.0606    
    109000   150.03014     -1.3330389e+08  913.05624      1425.0749    
    110000   149.99626     -1.3330397e+08  919.35464      1425.0891    
    111000   150.00147     -1.3330399e+08  914.84452      1425.1034    
    112000   150.00085     -1.3330397e+08  911.90407      1425.1176    
    113000   150.01854     -1.3330395e+08  906.6104       1425.1318    
    114000   150.03886     -1.3330395e+08  909.10286      1425.1461    
    115000   149.99433     -1.3330387e+08  900.52567      1425.1603    
    116000   149.98288     -1.3330397e+08  897.75221      1425.1746    
    117000   149.99137     -1.3330392e+08  891.05775      1425.1888    
    118000   149.98256     -1.3330383e+08  893.85687      1425.2031    
    119000   150.00497     -1.3330394e+08  888.08057      1425.2173    
    120000   149.99614     -1.3330403e+08  888.02504      1425.2315    
    121000   149.9983      -1.3330398e+08  883.55886      1425.2458    
    122000   149.98905     -1.3330399e+08  873.10652      1425.26      
    123000   149.98995     -1.3330407e+08  873.54859      1425.2743    
    124000   149.98448     -1.3330401e+08  876.35151      1425.2885    
    125000   149.9878      -1.3330387e+08  874.77571      1425.3028    
    126000   149.99482     -1.3330386e+08  872.05087      1425.317     
    127000   150.02107     -1.3330382e+08  868.05578      1425.3312    
    128000   150.02268     -1.3330389e+08  859.6247       1425.3455    
    129000   150.03508     -1.3330408e+08  855.72973      1425.3597    
    130000   149.94634     -1.3330382e+08  855.18361      1425.374     
    131000   149.98591     -1.3330389e+08  855.9703       1425.3882    
    132000   149.98013     -1.3330403e+08  856.02493      1425.4025    
    133000   150.02289     -1.3330394e+08  855.3446       1425.4167    
    134000   149.9723      -1.3330405e+08  855.47067      1425.4309    
    135000   149.98362     -1.3330397e+08  853.9676       1425.4452    
    136000   150.00818     -1.3330402e+08  843.14705      1425.4594    
    137000   150.01287     -1.3330396e+08  835.23722      1425.4737    
    138000   150.01641     -1.3330373e+08  836.12196      1425.4879    
    139000   150.02493     -1.333038e+08   835.79         1425.5021    
    140000   150.02642     -1.3330384e+08  832.10477      1425.5164    
    141000   150.02498     -1.333037e+08   830.61906      1425.5306    
    142000   149.99839     -1.333037e+08   827.86272      1425.5449    
    143000   150.01596     -1.3330392e+08  820.00287      1425.5591    
    144000   150.03579     -1.3330385e+08  820.85223      1425.5734    
    145000   150.05261     -1.3330383e+08  817.53741      1425.5876    
    146000   150.04213     -1.3330388e+08  815.1024       1425.6018    
    147000   150.00598     -1.3330374e+08  807.5585       1425.6161    
    148000   150.02656     -1.3330377e+08  807.68993      1425.6303    
    149000   150.04082     -1.3330374e+08  807.59748      1425.6446    
    150000   150.02841     -1.3330375e+08  807.47515      1425.6588    
    151000   150.00092     -1.3330361e+08  803.85183      1425.6731    
    152000   150.01785     -1.3330384e+08  792.16291      1425.6873    
    153000   150.02475     -1.3330383e+08  786.72218      1425.7015    
    154000   150.01022     -1.333038e+08   780.054        1425.7158    
    155000   150.00516     -1.3330371e+08  784.14772      1425.73      
    156000   150.01732     -1.3330382e+08  781.93131      1425.7443    
    157000   150.00139     -1.333037e+08   781.7861       1425.7585    
    158000   150.01169     -1.3330378e+08  779.52282      1425.7728    
    159000   149.98171     -1.3330374e+08  774.20039      1425.787     
    160000   150.02944     -1.333038e+08   772.96057      1425.8012    
    161000   150.01264     -1.3330371e+08  773.14667      1425.8155    
    162000   150.01203     -1.333038e+08   767.22003      1425.8297    
    163000   150.02078     -1.3330369e+08  767.65768      1425.844     
    164000   150.0127      -1.3330364e+08  762.92164      1425.8582    
    165000   150.01143     -1.3330362e+08  767.14463      1425.8724    
    166000   150.02358     -1.3330363e+08  759.91937      1425.8867    
    167000   150.00475     -1.3330352e+08  754.91169      1425.9009    
    168000   150.0271      -1.3330352e+08  751.10002      1425.9152    
    169000   149.99158     -1.333036e+08   746.07451      1425.9294    
    170000   150.00255     -1.3330364e+08  748.10506      1425.9437    
    171000   150.00966     -1.333037e+08   745.15073      1425.9579    
    172000   150.01754     -1.333036e+08   742.88874      1425.9721    
    173000   150.02004     -1.3330359e+08  735.40488      1425.9864    
    174000   150.00369     -1.3330352e+08  732.26194      1426.0006    
    175000   150.02801     -1.3330347e+08  738.68713      1426.0149    
    176000   149.97491     -1.3330351e+08  739.57841      1426.0291    
    177000   150.01666     -1.3330361e+08  728.52058      1426.0434    
    178000   150.00614     -1.3330368e+08  726.02615      1426.0576    
    179000   150.00447     -1.3330364e+08  719.81473      1426.0718    
    180000   150.00218     -1.3330349e+08  715.85359      1426.0861    
    181000   149.9864      -1.3330355e+08  719.49816      1426.1003    
    182000   149.98537     -1.3330358e+08  716.13073      1426.1146    
    183000   149.98957     -1.3330349e+08  715.97754      1426.1288    
    184000   149.97736     -1.3330348e+08  706.43362      1426.1431    
    185000   149.98436     -1.3330358e+08  697.46694      1426.1573    
    186000   149.99567     -1.3330369e+08  697.18236      1426.1715    
    187000   149.96962     -1.3330354e+08  704.53498      1426.1858    
    188000   149.99909     -1.3330375e+08  700.37811      1426.2       
    189000   149.98981     -1.3330384e+08  694.04496      1426.2143    
    190000   149.97639     -1.3330374e+08  685.55141      1426.2285    
    191000   149.96626     -1.3330347e+08  682.1667       1426.2428    
    192000   149.96554     -1.3330338e+08  680.70515      1426.257     
    193000   150.00962     -1.3330358e+08  682.86148      1426.2712    
    194000   149.99321     -1.3330343e+08  684.20079      1426.2855    
    195000   150.00415     -1.3330355e+08  679.58385      1426.2997    
    196000   149.98475     -1.3330346e+08  670.42612      1426.314     
    197000   149.97574     -1.3330345e+08  663.34822      1426.3282    
    198000   150.01279     -1.3330355e+08  661.52758      1426.3424    
    199000   149.99592     -1.3330335e+08  665.53028      1426.3567    
    200000   150.00292     -1.333035e+08   673.30675      1426.3709    
    201000   149.97934     -1.3330347e+08  667.83067      1426.3852    
    202000   149.97679     -1.333034e+08   657.3535       1426.3994    
    203000   149.9923      -1.3330345e+08  651.70747      1426.4137    
    204000   150.0261      -1.3330344e+08  645.89936      1426.4279    
    205000   150.00562     -1.3330333e+08  647.53319      1426.4421    
    206000   150.02747     -1.333034e+08   645.26163      1426.4564    
    207000   149.9877      -1.3330325e+08  644.0734       1426.4706    
    208000   149.97655     -1.3330335e+08  634.36424      1426.4849    
    209000   149.9918      -1.3330345e+08  636.27486      1426.4991    
    210000   149.99181     -1.3330339e+08  629.42049      1426.5134    
    211000   149.97743     -1.3330342e+08  632.12759      1426.5276    
    212000   150.0003      -1.3330344e+08  626.80481      1426.5418    
    213000   149.99857     -1.3330351e+08  630.51954      1426.5561    
    214000   149.96929     -1.3330335e+08  630.49752      1426.5703    
    215000   149.98249     -1.3330353e+08  624.80736      1426.5846    
    216000   149.96139     -1.333034e+08   616.55031      1426.5988    
    217000   149.97464     -1.3330331e+08  609.68295      1426.6131    
    218000   149.97653     -1.3330325e+08  605.91086      1426.6273    
    219000   150.00618     -1.3330323e+08  607.13842      1426.6415    
    220000   150.00751     -1.3330322e+08  602.76455      1426.6558    
    221000   149.97965     -1.3330317e+08  600.27454      1426.67      
    222000   149.99952     -1.3330328e+08  603.56404      1426.6843    
    223000   149.97218     -1.3330324e+08  606.37898      1426.6985    
    224000   149.99437     -1.3330334e+08  597.21188      1426.7127    
    225000   149.97352     -1.3330324e+08  590.05145      1426.727     
    226000   149.98394     -1.3330315e+08  583.63372      1426.7412    
    227000   150.00008     -1.3330331e+08  582.43622      1426.7555    
    228000   150.01766     -1.333033e+08   583.18829      1426.7697    
    229000   150.01658     -1.3330318e+08  579.10605      1426.784     
    230000   149.97504     -1.3330318e+08  581.19461      1426.7982    
    231000   149.99222     -1.3330328e+08  575.82494      1426.8124    
    232000   149.99196     -1.3330318e+08  580.00513      1426.8267    
    233000   150.02639     -1.3330322e+08  573.08753      1426.8409    
    234000   150.00317     -1.3330312e+08  573.76185      1426.8552    
    235000   150.01882     -1.3330314e+08  565.24688      1426.8694    
    236000   149.98488     -1.3330312e+08  558.00428      1426.8837    
    237000   149.99043     -1.3330315e+08  554.12833      1426.8979    
    238000   149.99923     -1.3330315e+08  555.23132      1426.9121    
    239000   149.96184     -1.3330292e+08  554.07984      1426.9264    
    240000   149.99132     -1.3330307e+08  551.21087      1426.9406    
    241000   149.97853     -1.3330298e+08  553.20599      1426.9549    
    242000   150.00177     -1.3330307e+08  550.7569       1426.9691    
    243000   150.04176     -1.3330305e+08  553.4087       1426.9834    
    244000   150.01495     -1.3330297e+08  543.84579      1426.9976    
    245000   150.02278     -1.3330306e+08  538.67715      1427.0118    
    246000   150.00247     -1.3330306e+08  538.97718      1427.0261    
    247000   150.02906     -1.3330313e+08  536.12831      1427.0403    
    248000   150.01067     -1.3330296e+08  532.94488      1427.0546    
    249000   149.984       -1.3330293e+08  524.38007      1427.0688    
    250000   150.03105     -1.333031e+08   524.9289       1427.083     
    251000   149.98933     -1.33303e+08    526.64239      1427.0973    
    252000   150.01054     -1.33303e+08    524.27475      1427.1115    
    253000   149.99418     -1.3330302e+08  513.08377      1427.1258    
    254000   150.02094     -1.3330304e+08  503.48942      1427.14      
    255000   150.00533     -1.3330287e+08  504.09491      1427.1543    
    256000   150.02052     -1.3330294e+08  508.14261      1427.1685    
    257000   150.02189     -1.3330293e+08  504.98401      1427.1827    
    258000   149.99514     -1.3330298e+08  503.27642      1427.197     
    259000   150.03303     -1.333029e+08   495.68095      1427.2112    
    260000   150.01793     -1.3330293e+08  495.18666      1427.2255    
    261000   150.00381     -1.3330288e+08  490.73337      1427.2397    
    262000   149.98968     -1.3330292e+08  492.85068      1427.254     
    263000   149.98931     -1.3330287e+08  492.53769      1427.2682    
    264000   150.01993     -1.3330292e+08  491.8564       1427.2824    
    265000   149.96847     -1.3330293e+08  480.15276      1427.2967    
    266000   150.00947     -1.3330304e+08  477.22586      1427.3109    
    267000   149.97749     -1.3330282e+08  469.64325      1427.3252    
    268000   149.97939     -1.3330288e+08  471.9822       1427.3394    
    269000   149.99796     -1.3330292e+08  471.22174      1427.3537    
    270000   150.00206     -1.3330292e+08  469.83956      1427.3679    
    271000   149.99171     -1.3330292e+08  461.82988      1427.3821    
    272000   149.99385     -1.3330281e+08  458.39062      1427.3964    
    273000   150.00558     -1.3330287e+08  455.75756      1427.4106    
    274000   149.98805     -1.3330273e+08  455.52712      1427.4249    
    275000   149.97353     -1.3330255e+08  457.28742      1427.4391    
    276000   149.99921     -1.333027e+08   447.65422      1427.4533    
    277000   149.98186     -1.3330255e+08  446.68369      1427.4676    
    278000   150.01197     -1.3330285e+08  442.35844      1427.4818    
    279000   149.98726     -1.3330278e+08  434.48756      1427.4961    
    280000   150.02449     -1.3330278e+08  442.35239      1427.5103    
    281000   149.96327     -1.3330267e+08  443.8359       1427.5246    
    282000   149.99493     -1.333028e+08   439.2132       1427.5388    
    283000   149.9752      -1.3330283e+08  431.33504      1427.553     
    284000   149.97333     -1.33303e+08    428.08867      1427.5673    
    285000   149.97516     -1.3330294e+08  422.42219      1427.5815    
    286000   149.98279     -1.3330285e+08  425.31174      1427.5958    
    287000   149.99503     -1.3330284e+08  425.86803      1427.61      
    288000   149.94718     -1.3330261e+08  426.6088       1427.6243    
    289000   149.97513     -1.3330262e+08  428.73189      1427.6385    
    290000   149.97329     -1.3330272e+08  421.43799      1427.6527    
    291000   149.99759     -1.3330264e+08  412.06259      1427.667     
    292000   149.99647     -1.3330271e+08  403.87648      1427.6812    
    293000   149.98021     -1.3330263e+08  400.82533      1427.6955    
    294000   149.97172     -1.3330251e+08  397.22818      1427.7097    
    295000   149.97276     -1.3330271e+08  399.03785      1427.724     
    296000   149.95961     -1.3330256e+08  397.08495      1427.7382    
    297000   149.97259     -1.333027e+08   392.72409      1427.7524    
    298000   149.98855     -1.333027e+08   388.69443      1427.7667    
    299000   149.98329     -1.3330268e+08  380.70251      1427.7809    
    300000   149.97208     -1.3330278e+08  383.26849      1427.7952    
    301000   149.97419     -1.3330262e+08  385.30765      1427.8094    
    302000   149.9951      -1.3330273e+08  379.87536      1427.8237    
    303000   149.98337     -1.3330237e+08  380.25904      1427.8379    
    304000   149.98378     -1.3330255e+08  370.83074      1427.8521    
    305000   149.99365     -1.3330251e+08  367.11716      1427.8664    
    306000   149.95454     -1.3330238e+08  362.16749      1427.8806    
    307000   149.99665     -1.3330255e+08  366.60101      1427.8949    
    308000   149.96794     -1.3330233e+08  364.44688      1427.9091    
    309000   149.98618     -1.3330251e+08  361.41879      1427.9233    
    310000   150.00933     -1.3330255e+08  356.61898      1427.9376    
    311000   149.99947     -1.3330233e+08  353.48686      1427.9518    
    312000   150.02481     -1.3330244e+08  351.23825      1427.9661    
    313000   150.01095     -1.3330242e+08  355.91219      1427.9803    
    314000   149.97468     -1.3330224e+08  347.9823       1427.9946    
    315000   149.99486     -1.3330242e+08  342.8718       1428.0088    
    316000   150.01579     -1.3330244e+08  336.53939      1428.023     
    317000   149.96992     -1.3330235e+08  334.53487      1428.0373    
    318000   149.99754     -1.3330235e+08  333.25315      1428.0515    
    319000   150.02942     -1.3330243e+08  339.33453      1428.0658    
    320000   150.00091     -1.333023e+08   334.75213      1428.08      
    321000   149.98478     -1.3330213e+08  328.82671      1428.0943    
    322000   150.01033     -1.3330235e+08  321.61415      1428.1085    
    323000   150.00664     -1.3330229e+08  312.22389      1428.1227    
    324000   150.01257     -1.3330215e+08  314.26062      1428.137     
    325000   150.0294      -1.3330229e+08  310.88002      1428.1512    
    326000   150.00287     -1.3330221e+08  310.43831      1428.1655    
    327000   150.01698     -1.3330252e+08  306.44777      1428.1797    
    328000   149.98257     -1.3330231e+08  309.38476      1428.194     
    329000   149.98346     -1.3330218e+08  306.21427      1428.2082    
    330000   149.99871     -1.3330214e+08  307.19793      1428.2224    
    331000   150.02914     -1.333022e+08   299.55382      1428.2367    
    332000   150.01496     -1.3330202e+08  296.66796      1428.2509    
    333000   150.03635     -1.3330207e+08  285.41564      1428.2652    
    334000   150.01947     -1.3330205e+08  283.69982      1428.2794    
    335000   150.00865     -1.3330213e+08  287.58182      1428.2936    
    336000   149.96307     -1.3330207e+08  289.0074       1428.3079    
    337000   150.00762     -1.3330214e+08  287.81028      1428.3221    
    338000   149.99879     -1.3330201e+08  282.96061      1428.3364    
    339000   150.02835     -1.3330221e+08  278.11636      1428.3506    
    340000   150.02506     -1.3330215e+08  274.20368      1428.3649    
    341000   150.03595     -1.3330213e+08  263.40162      1428.3791    
    342000   149.98045     -1.3330173e+08  269.22539      1428.3933    
    343000   150.01479     -1.3330184e+08  271.7043       1428.4076    
    344000   150.00687     -1.3330195e+08  269.68196      1428.4218    
    345000   149.98455     -1.3330208e+08  265.90272      1428.4361    
    346000   149.98853     -1.3330187e+08  259.59427      1428.4503    
    347000   149.99164     -1.3330198e+08  252.07712      1428.4646    
    348000   150.0119      -1.3330217e+08  244.68588      1428.4788    
    349000   149.97069     -1.3330202e+08  241.3167       1428.493     
    350000   150.00799     -1.333021e+08   245.84542      1428.5073    
    351000   149.98722     -1.3330197e+08  245.51384      1428.5215    
    352000   149.98556     -1.3330181e+08  245.36902      1428.5358    
    353000   149.98916     -1.33302e+08    239.41803      1428.55      
    354000   149.9823      -1.3330186e+08  237.65989      1428.5643    
    355000   150.00421     -1.3330202e+08  232.19404      1428.5785    
    356000   149.9915      -1.3330189e+08  226.90285      1428.5927    
    357000   149.97182     -1.3330182e+08  229.73175      1428.607     
    358000   149.97349     -1.3330201e+08  232.66816      1428.6212    
    359000   149.98644     -1.3330186e+08  232.37338      1428.6355    
    360000   150.00354     -1.3330175e+08  225.82729      1428.6497    
    361000   149.95646     -1.3330157e+08  216.46495      1428.6639    
    362000   149.98891     -1.3330185e+08  208.74098      1428.6782    
    363000   149.97603     -1.333018e+08   201.07477      1428.6924    
    364000   149.99607     -1.3330202e+08  201.22724      1428.7067    
    365000   149.98099     -1.3330188e+08  201.90623      1428.7209    
    366000   150.00141     -1.3330184e+08  209.37301      1428.7352    
    367000   149.97937     -1.3330165e+08  203.71205      1428.7494    
    368000   149.99574     -1.333017e+08   203.65888      1428.7636    
    369000   149.9951      -1.3330175e+08  195.79431      1428.7779    
    370000   149.99084     -1.3330159e+08  193.87472      1428.7921    
    371000   150.006       -1.3330155e+08  184.54275      1428.8064    
    372000   150.02942     -1.3330179e+08  184.99823      1428.8206    
    373000   150.00614     -1.3330166e+08  181.59945      1428.8349    
    374000   149.99492     -1.3330161e+08  182.83013      1428.8491    
    375000   149.99215     -1.3330153e+08  181.12796      1428.8633    
    376000   149.99615     -1.3330152e+08  177.15193      1428.8776    
    377000   149.97474     -1.3330161e+08  172.20656      1428.8918    
    378000   150.00445     -1.3330158e+08  162.88162      1428.9061    
    379000   150.01152     -1.3330156e+08  165.34518      1428.9203    
    380000   150.05174     -1.3330181e+08  164.44551      1428.9346    
    381000   149.99159     -1.3330152e+08  163.84633      1428.9488    
    382000   150.00323     -1.3330146e+08  161.83283      1428.963     
    383000   150.00915     -1.3330154e+08  155.61648      1428.9773    
    384000   150.01199     -1.3330149e+08  146.99654      1428.9915    
    385000   149.98851     -1.3330148e+08  149.35575      1429.0058    
    386000   149.9584      -1.3330134e+08  145.63431      1429.02      
    387000   149.99406     -1.3330142e+08  145.39237      1429.0343    
    388000   149.99464     -1.3330141e+08  143.85033      1429.0485    
    389000   150.01231     -1.3330138e+08  141.17458      1429.0627    
    390000   150.03285     -1.3330156e+08  140.06668      1429.077     
    391000   150.01947     -1.3330144e+08  138.95157      1429.0912    
    392000   150.00827     -1.3330129e+08  137.44728      1429.1055    
    393000   150.05458     -1.3330129e+08  133.21891      1429.1197    
    394000   150.02396     -1.3330142e+08  132.88966      1429.1339    
    395000   149.99956     -1.3330129e+08  120.17757      1429.1482    
    396000   149.99945     -1.3330126e+08  121.32053      1429.1624    
    397000   149.98779     -1.3330136e+08  116.57292      1429.1767    
    398000   150.00944     -1.3330136e+08  116.27798      1429.1909    
    399000   150.00942     -1.3330134e+08  113.42252      1429.2052    
    400000   149.98358     -1.3330129e+08  113.93416      1429.2194    
    401000   150.01471     -1.333014e+08   108.08168      1429.2336    
    402000   149.99668     -1.3330143e+08  103.36393      1429.2479    
    403000   149.99302     -1.3330154e+08  98.783444      1429.2621    
    404000   149.98999     -1.3330134e+08  102.03712      1429.2764    
    405000   149.98832     -1.3330118e+08  99.224669      1429.2906    
    406000   150.00526     -1.3330131e+08  97.673734      1429.3049    
    407000   149.98723     -1.333011e+08   90.110938      1429.3191    
    408000   150.00577     -1.3330113e+08  85.175685      1429.3333    
    409000   150.01608     -1.3330113e+08  78.809947      1429.3476    
    410000   150.01567     -1.3330115e+08  81.328987      1429.3618    
    411000   150.01723     -1.3330115e+08  74.847449      1429.3761    
    412000   150.01848     -1.3330115e+08  78.510477      1429.3903    
    413000   149.9957      -1.3330089e+08  79.431084      1429.4046    
    414000   150.03467     -1.3330118e+08  77.891805      1429.4188    
    415000   150.00767     -1.3330118e+08  65.641853      1429.433     
    416000   150.00071     -1.3330102e+08  65.604748      1429.4473    
    417000   149.98465     -1.3330102e+08  64.868876      1429.4615    
    418000   149.99823     -1.333011e+08   65.47078       1429.4758    
    419000   150.00514     -1.3330096e+08  62.172269      1429.49      
    420000   150.02214     -1.3330094e+08  51.232948      1429.5042    
    421000   150.01509     -1.3330097e+08  41.696405      1429.5185    
    422000   149.97942     -1.3330085e+08  45.585578      1429.5327    
    423000   149.98821     -1.3330089e+08  49.476998      1429.547     
    424000   150.0016      -1.3330097e+08  47.200964      1429.5612    
    425000   149.97774     -1.3330089e+08  41.692527      1429.5755    
    426000   150.03745     -1.3330102e+08  35.41998       1429.5897    
    427000   149.98237     -1.3330085e+08  32.869857      1429.6039    
    428000   150.01241     -1.3330095e+08  37.260561      1429.6182    
    429000   150.0049      -1.3330081e+08  40.840456      1429.6324    
    430000   150.00844     -1.3330077e+08  40.610833      1429.6467    
    431000   150.02959     -1.3330089e+08  33.3315        1429.6609    
    432000   150.00547     -1.3330085e+08  23.707732      1429.6752    
    433000   150.00529     -1.3330073e+08  14.672629      1429.6894    
    434000   149.98108     -1.3330073e+08  14.934564      1429.7036    
    435000   149.99798     -1.3330078e+08  17.410594      1429.7179    
    436000   149.99124     -1.3330082e+08  12.212632      1429.7321    
    437000   150.00843     -1.3330084e+08  6.9229115      1429.7464    
    438000   149.97304     -1.3330063e+08 -1.7164003      1429.7606    
    439000   149.9992      -1.3330066e+08 -5.6263516      1429.7749    
    440000   150.00747     -1.3330066e+08  0.43477637     1429.7891    
    441000   149.99875     -1.3330066e+08  3.8046823      1429.8033    
    442000   149.98355     -1.3330066e+08  1.763538       1429.8176    
    443000   149.98044     -1.3330062e+08 -6.111355       1429.8318    
    444000   149.98147     -1.333007e+08  -16.312066      1429.8461    
    445000   149.9401      -1.3330057e+08 -19.307467      1429.8603    
    446000   149.96892     -1.3330077e+08 -13.249958      1429.8745    
    447000   149.94578     -1.3330061e+08 -10.373251      1429.8888    
    448000   149.98342     -1.3330058e+08 -17.907499      1429.903     
    449000   150.0013      -1.333007e+08  -28.405834      1429.9173    
    450000   149.9856      -1.3330065e+08 -32.923691      1429.9315    
    451000   150.01045     -1.3330075e+08 -30.574213      1429.9458    
    452000   150.01391     -1.3330051e+08 -23.809385      1429.96      
    453000   149.99759     -1.3330044e+08 -19.935733      1429.9742    
    454000   150.00099     -1.3330053e+08 -33.175464      1429.9885    
    455000   149.99486     -1.3330037e+08 -35.01587       1430.0027    
    456000   150.03218     -1.3330043e+08 -46.247249      1430.017     
    457000   150.00956     -1.3330034e+08 -48.967898      1430.0312    
    458000   150.03845     -1.3330046e+08 -54.76471       1430.0455    
    459000   149.98611     -1.3330042e+08 -53.761734      1430.0597    
    460000   149.99581     -1.3330042e+08 -48.615108      1430.0739    
    461000   149.99492     -1.3330031e+08 -51.942868      1430.0882    
    462000   150.01715     -1.3330031e+08 -61.208486      1430.1024    
    463000   150.06295     -1.3330038e+08 -67.96017       1430.1167    
    464000   150.06385     -1.3330028e+08 -66.750627      1430.1309    
    465000   150.01295     -1.3330013e+08 -69.192285      1430.1452    
    466000   150.01812     -1.3330017e+08 -66.930514      1430.1594    
    467000   150.04219     -1.3330019e+08 -73.133875      1430.1736    
    468000   150.03353     -1.3330014e+08 -68.491404      1430.1879    
    469000   150.03142     -1.3329992e+08 -68.041735      1430.2021    
    470000   150.01114     -1.3330013e+08 -73.776062      1430.2164    
    471000   149.99883     -1.3330012e+08 -87.632732      1430.2306    
    472000   149.98161     -1.3330019e+08 -93.86987       1430.2448    
    473000   149.98236     -1.3330009e+08 -91.978153      1430.2591    
    474000   149.99786     -1.3330017e+08 -89.938856      1430.2733    
    475000   149.9864      -1.3330012e+08 -87.936705      1430.2876    
    476000   150.0145      -1.3330031e+08 -90.107114      1430.3018    
    477000   150.01137     -1.3330022e+08 -97.391652      1430.3161    
    478000   149.99419     -1.3329994e+08 -98.083899      1430.3303    
    479000   149.96818     -1.3329994e+08 -104.44976      1430.3445    
    480000   149.99353     -1.3329995e+08 -106.71515      1430.3588    
    481000   149.98249     -1.333e+08     -107.58695      1430.373     
    482000   150.00564     -1.3330014e+08 -114.46333      1430.3873    
    483000   150.01384     -1.3329998e+08 -114.97511      1430.4015    
    484000   150.00763     -1.3329997e+08 -123.57724      1430.4158    
    485000   150.0238      -1.3329988e+08 -125.80065      1430.43      
    486000   150.03293     -1.3329987e+08 -126.58872      1430.4442    
    487000   150.03437     -1.3330002e+08 -125.69461      1430.4585    
    488000   150.03265     -1.3330004e+08 -129.51571      1430.4727    
    489000   150.00171     -1.3330011e+08 -132.20982      1430.487     
    490000   149.98935     -1.3329994e+08 -136.14151      1430.5012    
    491000   150.00762     -1.3329996e+08 -138.66167      1430.5155    
    492000   149.96343     -1.3329988e+08 -146.72837      1430.5297    
    493000   149.99855     -1.3329994e+08 -144.80843      1430.5439    
    494000   149.98916     -1.3329985e+08 -140.22755      1430.5582    
    495000   149.98101     -1.3329992e+08 -145.25138      1430.5724    
    496000   149.98705     -1.3329988e+08 -155.34968      1430.5867    
    497000   149.98957     -1.3329985e+08 -157.31475      1430.6009    
    498000   149.99513     -1.3329983e+08 -156.64426      1430.6152    
    499000   149.99005     -1.3329969e+08 -156.34941      1430.6294    
    500000   149.99555     -1.3329986e+08 -159.93875      1430.6436    
    501000   149.97026     -1.3329967e+08 -165.33719      1430.6579    
    502000   150.00248     -1.3329972e+08 -167.87019      1430.6721    
    503000   150.00192     -1.3329965e+08 -171.43538      1430.6864    
    504000   149.98543     -1.3329954e+08 -167.26516      1430.7006    
    505000   150.00019     -1.3329959e+08 -169.85185      1430.7148    
    506000   149.99453     -1.3329965e+08 -174.49089      1430.7291    
    507000   149.99837     -1.3329961e+08 -179.8654       1430.7433    
    508000   150.01939     -1.332996e+08  -186.04986      1430.7576    
    509000   149.99837     -1.3329945e+08 -183.51643      1430.7718    
    510000   150.01526     -1.3329951e+08 -185.88104      1430.7861    
    511000   150.01704     -1.3329952e+08 -195.28485      1430.8003    
    512000   150.0021      -1.3329956e+08 -198.35418      1430.8145    
    513000   149.99621     -1.3329958e+08 -200.61583      1430.8288    
    514000   149.98794     -1.3329952e+08 -197.87142      1430.843     
    515000   149.97043     -1.3329931e+08 -196.56962      1430.8573    
    516000   149.9812      -1.3329938e+08 -197.50422      1430.8715    
    517000   149.99629     -1.3329938e+08 -204.61345      1430.8858    
    518000   149.99259     -1.3329949e+08 -217.24071      1430.9       
    519000   150.00977     -1.3329945e+08 -214.67714      1430.9142    
    520000   149.98518     -1.3329942e+08 -215.1819       1430.9285    
    521000   150.02904     -1.3329952e+08 -212.71214      1430.9427    
    522000   149.99928     -1.3329929e+08 -219.67602      1430.957     
    523000   149.99577     -1.3329935e+08 -222.14659      1430.9712    
    524000   149.99792     -1.3329922e+08 -229.02978      1430.9855    
    525000   150.00367     -1.332993e+08  -234.73999      1430.9997    
    526000   149.98125     -1.3329923e+08 -233.53082      1431.0139    
    527000   150.00736     -1.3329932e+08 -230.78786      1431.0282    
    528000   149.96578     -1.3329908e+08 -231.4134       1431.0424    
    529000   149.99793     -1.3329921e+08 -237.38674      1431.0567    
    530000   150.02207     -1.3329934e+08 -249.34949      1431.0709    
    531000   150.00004     -1.3329909e+08 -247.35514      1431.0851    
    532000   150.01277     -1.3329907e+08 -247.54734      1431.0994    
    533000   149.98702     -1.332989e+08  -249.22439      1431.1136    
    534000   150.03562     -1.3329906e+08 -254.69806      1431.1279    
    535000   149.99489     -1.3329888e+08 -252.32245      1431.1421    
    536000   150.00881     -1.3329902e+08 -257.77704      1431.1564    
    537000   150.00837     -1.3329888e+08 -254.35922      1431.1706    
    538000   150.03952     -1.3329899e+08 -263.42885      1431.1848    
    539000   150.07267     -1.3329914e+08 -263.31489      1431.1991    
    540000   150.00937     -1.3329895e+08 -268.72522      1431.2133    
    541000   150.00491     -1.332991e+08  -272.4051       1431.2276    
    542000   150.03524     -1.3329893e+08 -277.38385      1431.2418    
    543000   149.98115     -1.3329887e+08 -276.48877      1431.2561    
    544000   150.02889     -1.3329904e+08 -274.02225      1431.2703    
    545000   150.03371     -1.3329902e+08 -280.67223      1431.2845    
    546000   150.02381     -1.3329877e+08 -284.86603      1431.2988    
    547000   150.01287     -1.3329889e+08 -292.55529      1431.313     
    548000   149.96181     -1.3329869e+08 -295.804        1431.3273    
    549000   149.99221     -1.3329864e+08 -292.30341      1431.3415    
    550000   150.05405     -1.3329884e+08 -295.8478       1431.3558    
    551000   150.01713     -1.3329864e+08 -293.26418      1431.37      
    552000   150.00862     -1.3329851e+08 -305.82766      1431.3842    
    553000   150.03919     -1.3329864e+08 -309.05232      1431.3985    
    554000   150.00218     -1.3329845e+08 -313.53276      1431.4127    
    555000   150.02722     -1.3329865e+08 -307.6962       1431.427     
    556000   150.00011     -1.3329863e+08 -310.14428      1431.4412    
    557000   149.9935      -1.3329863e+08 -314.85533      1431.4554    
    558000   150.00761     -1.3329856e+08 -318.34607      1431.4697    
    559000   150.02655     -1.3329861e+08 -322.65555      1431.4839    
    560000   149.98516     -1.3329857e+08 -323.73757      1431.4982    
    561000   149.99923     -1.3329864e+08 -328.33821      1431.5124    
    562000   149.98266     -1.3329853e+08 -328.88696      1431.5267    
    563000   150.00694     -1.3329847e+08 -332.89488      1431.5409    
    564000   150.00931     -1.3329862e+08 -332.00886      1431.5551    
    565000   149.98697     -1.3329851e+08 -332.44863      1431.5694    
    566000   149.99003     -1.3329847e+08 -340.48097      1431.5836    
    567000   149.97719     -1.3329848e+08 -346.20852      1431.5979    
    568000   150.02494     -1.3329856e+08 -344.24933      1431.6121    
    569000   150.02471     -1.3329846e+08 -340.79682      1431.6264    
    570000   150.01235     -1.3329841e+08 -349.08843      1431.6406    
    571000   149.95861     -1.3329843e+08 -349.11853      1431.6548    
    572000   149.97481     -1.3329855e+08 -357.28174      1431.6691    
    573000   149.98521     -1.3329848e+08 -355.60494      1431.6833    
    574000   149.9886      -1.3329832e+08 -365.38747      1431.6976    
    575000   150.0179      -1.3329836e+08 -361.67733      1431.7118    
    576000   150.00872     -1.3329827e+08 -364.09665      1431.7261    
    577000   150.02865     -1.3329831e+08 -363.77869      1431.7403    
    578000   150.03196     -1.3329803e+08 -367.05539      1431.7545    
    579000   150.04546     -1.332981e+08  -377.14857      1431.7688    
    580000   150.0152      -1.3329804e+08 -382.23759      1431.783     
    581000   150.02335     -1.3329825e+08 -382.28594      1431.7973    
    582000   150.01001     -1.3329813e+08 -385.94815      1431.8115    
    583000   149.99328     -1.3329819e+08 -386.32359      1431.8257    
    584000   149.98874     -1.3329805e+08 -387.25527      1431.84      
    585000   150.03484     -1.3329813e+08 -392.41515      1431.8542    
    586000   150.01273     -1.3329803e+08 -395.90504      1431.8685    
    587000   149.99504     -1.3329793e+08 -400.30032      1431.8827    
    588000   150.02253     -1.3329801e+08 -401.27209      1431.897     
    589000   150.02957     -1.3329796e+08 -400.00049      1431.9112    
    590000   150.02932     -1.3329797e+08 -401.26803      1431.9254    
    591000   150.00967     -1.3329794e+08 -403.84066      1431.9397    
    592000   150.01319     -1.3329799e+08 -406.17488      1431.9539    
    593000   149.99098     -1.33298e+08   -412.41645      1431.9682    
    594000   150.00935     -1.3329795e+08 -420.16593      1431.9824    
    595000   150.01446     -1.3329796e+08 -416.90377      1431.9967    
    596000   150.0031      -1.3329784e+08 -416.47304      1432.0109    
    597000   150.02623     -1.3329788e+08 -415.26917      1432.0251    
    598000   150.00505     -1.3329783e+08 -423.70479      1432.0394    
    599000   150.04033     -1.3329784e+08 -430.05252      1432.0536    
    600000   150.02787     -1.3329778e+08 -434.60175      1432.0679    
    601000   150.02115     -1.3329763e+08 -429.23831      1432.0821    
    602000   150.0093      -1.3329759e+08 -431.18615      1432.0964    
    603000   150.0423      -1.3329778e+08 -430.53699      1432.1106    
    604000   150.0396      -1.3329772e+08 -437.68135      1432.1248    
    605000   150.03494     -1.3329765e+08 -443.61215      1432.1391    
    606000   150.00141     -1.3329757e+08 -455.04287      1432.1533    
    607000   150.00453     -1.3329769e+08 -457.63721      1432.1676    
    608000   150.00113     -1.332977e+08  -451.44191      1432.1818    
    609000   150.03879     -1.3329777e+08 -445.72317      1432.1961    
    610000   149.99059     -1.3329743e+08 -445.55632      1432.2103    
    611000   149.99522     -1.3329755e+08 -457.22023      1432.2245    
    612000   150.00616     -1.3329759e+08 -461.30039      1432.2388    
    613000   150.01532     -1.3329767e+08 -465.43734      1432.253     
    614000   150.02179     -1.3329762e+08 -473.62776      1432.2673    
    615000   150.03405     -1.3329749e+08 -480.19048      1432.2815    
    616000   150.03457     -1.3329747e+08 -476.54205      1432.2957    
    617000   150.02949     -1.3329743e+08 -471.40659      1432.31      
    618000   150.00985     -1.3329744e+08 -470.28352      1432.3242    
    619000   149.98794     -1.3329738e+08 -480.15652      1432.3385    
    620000   149.97909     -1.3329735e+08 -489.47078      1432.3527    
    621000   150.02658     -1.3329752e+08 -496.50341      1432.367     
    622000   150.02477     -1.3329731e+08 -495.88012      1432.3812    
    623000   150.0275      -1.3329725e+08 -488.45681      1432.3954    
    624000   150.03398     -1.3329727e+08 -489.02431      1432.4097    
    625000   149.98668     -1.3329727e+08 -497.2851       1432.4239    
    626000   150.00871     -1.3329731e+08 -500.43488      1432.4382    
    627000   150.0068      -1.3329713e+08 -506.17637      1432.4524    
    628000   150.00797     -1.3329717e+08 -508.47268      1432.4667    
    629000   150.01205     -1.3329728e+08 -513.78045      1432.4809    
    630000   149.98        -1.3329718e+08 -507.99006      1432.4951    
    631000   149.97335     -1.3329721e+08 -505.71853      1432.5094    
    632000   149.96857     -1.3329734e+08 -503.69017      1432.5236    
    633000   149.97304     -1.3329721e+08 -515.54064      1432.5379    
    634000   149.95518     -1.3329711e+08 -520.74779      1432.5521    
    635000   149.97462     -1.3329722e+08 -528.59954      1432.5664    
    636000   150.00471     -1.3329701e+08 -532.4305       1432.5806    
    637000   149.97742     -1.3329715e+08 -539.27865      1432.5948    
    638000   150.01718     -1.3329722e+08 -531.2585       1432.6091    
    639000   150.00312     -1.3329703e+08 -529.77675      1432.6233    
    640000   150.01743     -1.3329702e+08 -526.73428      1432.6376    
    641000   150.0129      -1.3329702e+08 -540.41516      1432.6518    
    642000   150.00801     -1.332969e+08  -549.21024      1432.666     
    643000   150.01514     -1.3329685e+08 -557.29358      1432.6803    
    644000   149.99939     -1.3329687e+08 -551.40921      1432.6945    
    645000   150.02505     -1.3329687e+08 -545.90897      1432.7088    
    646000   150.00265     -1.3329679e+08 -546.56361      1432.723     
    647000   150.01715     -1.3329691e+08 -556.49305      1432.7373    
    648000   149.98403     -1.3329673e+08 -560.0797       1432.7515    
    649000   149.98397     -1.332968e+08  -559.08003      1432.7657    
    650000   149.99396     -1.3329674e+08 -556.687        1432.78      
    651000   149.9771      -1.3329671e+08 -565.29288      1432.7942    
    652000   149.9997      -1.3329673e+08 -568.23829      1432.8085    
    653000   149.97076     -1.3329673e+08 -574.84309      1432.8227    
    654000   149.99277     -1.3329683e+08 -575.8669       1432.837     
    655000   149.96238     -1.3329672e+08 -584.85618      1432.8512    
    656000   149.98385     -1.3329683e+08 -581.14917      1432.8654    
    657000   149.97929     -1.3329662e+08 -582.05823      1432.8797    
    658000   149.99008     -1.332966e+08  -586.67536      1432.8939    
    659000   149.98204     -1.332966e+08  -592.62074      1432.9082    
    660000   149.97239     -1.3329664e+08 -590.49609      1432.9224    
    661000   149.99801     -1.3329651e+08 -591.51178      1432.9367    
    662000   149.99254     -1.3329644e+08 -598.50125      1432.9509    
    663000   150.03224     -1.3329662e+08 -605.32613      1432.9651    
    664000   150.03308     -1.3329646e+08 -605.75388      1432.9794    
    665000   150.03754     -1.3329642e+08 -605.45005      1432.9936    
    666000   150.00359     -1.3329632e+08 -604.84104      1433.0079    
    667000   150.01605     -1.3329631e+08 -602.24679      1433.0221    
    668000   150.00894     -1.3329613e+08 -609.336        1433.0363    
    669000   150.00556     -1.3329633e+08 -617.42738      1433.0506    
    670000   150.0256      -1.3329633e+08 -622.52782      1433.0648    
    671000   149.9903      -1.3329619e+08 -620.59103      1433.0791    
    672000   149.9785      -1.3329614e+08 -619.85973      1433.0933    
    673000   149.98905     -1.3329625e+08 -625.06156      1433.1076    
    674000   149.98317     -1.3329614e+08 -624.38641      1433.1218    
    675000   149.98585     -1.3329621e+08 -622.9654       1433.136     
    676000   149.96188     -1.3329605e+08 -627.68671      1433.1503    
    677000   150.0042      -1.3329632e+08 -635.82232      1433.1645    
    678000   149.97666     -1.3329617e+08 -637.66774      1433.1788    
    679000   149.98025     -1.3329605e+08 -646.7627       1433.193     
    680000   149.9974      -1.3329596e+08 -650.30716      1433.2073    
    681000   149.99266     -1.3329584e+08 -646.22799      1433.2215    
    682000   150.00385     -1.332959e+08  -641.70154      1433.2357    
    683000   150.03044     -1.3329607e+08 -649.49233      1433.25      
    684000   149.98728     -1.33296e+08   -655.09981      1433.2642    
    685000   149.99538     -1.3329583e+08 -657.62429      1433.2785    
    686000   150.04783     -1.3329599e+08 -658.3336       1433.2927    
    687000   150.01653     -1.3329587e+08 -659.29456      1433.307     
    688000   150.00959     -1.3329582e+08 -659.95485      1433.3212    
    689000   149.97338     -1.3329597e+08 -667.9069       1433.3354    
    690000   149.993       -1.3329599e+08 -669.7367       1433.3497    
    691000   149.96617     -1.3329608e+08 -668.66884      1433.3639    
    692000   149.99309     -1.3329605e+08 -675.20213      1433.3782    
    693000   149.95372     -1.3329586e+08 -677.08317      1433.3924    
    694000   149.95591     -1.3329578e+08 -683.38519      1433.4067    
    695000   150.00359     -1.3329576e+08 -684.10583      1433.4209    
    696000   149.99657     -1.3329563e+08 -693.40688      1433.4351    
    697000   150.0062      -1.332957e+08  -692.57358      1433.4494    
    698000   150.01173     -1.3329577e+08 -693.75483      1433.4636    
    699000   150.00531     -1.3329577e+08 -686.78282      1433.4779    
    700000   149.99522     -1.3329563e+08 -693.75195      1433.4921    
    701000   149.98308     -1.3329554e+08 -705.04986      1433.5063    
    702000   149.97046     -1.3329541e+08 -706.12835      1433.5206    
    703000   150.00568     -1.3329561e+08 -705.16305      1433.5348    
    704000   149.98764     -1.3329562e+08 -704.08004      1433.5491    
    705000   149.98447     -1.3329566e+08 -705.7847       1433.5633    
    706000   149.99257     -1.3329572e+08 -712.01206      1433.5776    
    707000   150.00497     -1.3329557e+08 -712.93205      1433.5918    
    708000   149.981       -1.3329543e+08 -725.46162      1433.606     
    709000   150.01569     -1.3329536e+08 -723.46313      1433.6203    
    710000   149.97831     -1.332952e+08  -723.51498      1433.6345    
    711000   149.99802     -1.3329519e+08 -723.94978      1433.6488    
    712000   149.99504     -1.3329525e+08 -729.00489      1433.663     
    713000   149.98511     -1.3329522e+08 -732.82583      1433.6773    
    714000   149.99681     -1.3329542e+08 -734.50307      1433.6915    
    715000   150.00453     -1.3329529e+08 -739.59161      1433.7057    
    716000   150.00619     -1.3329531e+08 -732.46739      1433.72      
    717000   149.99108     -1.3329518e+08 -735.61384      1433.7342    
    718000   149.97124     -1.3329522e+08 -741.62699      1433.7485    
    719000   149.99098     -1.3329525e+08 -744.86675      1433.7627    
    720000   149.99235     -1.3329526e+08 -749.96672      1433.777     
    721000   149.991       -1.3329522e+08 -752.66137      1433.7912    
    722000   149.99061     -1.3329505e+08 -756.24985      1433.8054    
    723000   150.01925     -1.3329519e+08 -756.09286      1433.8197    
    724000   150.00577     -1.3329511e+08 -757.06491      1433.8339    
    725000   149.98041     -1.3329519e+08 -764.00978      1433.8482    
    726000   150.01159     -1.3329522e+08 -766.33758      1433.8624    
    727000   149.97905     -1.332951e+08  -766.09527      1433.8766    
    728000   149.99031     -1.3329499e+08 -768.68501      1433.8909    
    729000   149.97742     -1.3329503e+08 -772.19143      1433.9051    
    730000   149.98154     -1.3329495e+08 -774.99472      1433.9194    
    731000   150.01748     -1.3329502e+08 -772.24958      1433.9336    
    732000   149.99047     -1.3329498e+08 -777.30169      1433.9479    
    733000   149.96564     -1.3329474e+08 -777.6347       1433.9621    
    734000   149.99454     -1.332947e+08  -788.40009      1433.9763    
    735000   150.007       -1.3329474e+08 -790.75255      1433.9906    
    736000   150.02327     -1.3329494e+08 -799.41826      1434.0048    
    737000   150.00243     -1.3329478e+08 -793.82636      1434.0191    
    738000   149.9868      -1.3329474e+08 -794.35235      1434.0333    
    739000   150.0052      -1.3329468e+08 -798.28094      1434.0476    
    740000   150.00527     -1.3329464e+08 -801.95832      1434.0618    
    741000   149.98197     -1.3329453e+08 -808.20049      1434.076     
    742000   149.98631     -1.3329461e+08 -810.52148      1434.0903    
    743000   149.98121     -1.3329466e+08 -810.83293      1434.1045    
    744000   150.02238     -1.3329478e+08 -813.91842      1434.1188    
    745000   149.95683     -1.3329453e+08 -817.20978      1434.133     
    746000   149.98038     -1.3329447e+08 -822.46346      1434.1473    
    747000   149.99446     -1.3329447e+08 -826.35743      1434.1615    
    748000   150.01471     -1.3329457e+08 -821.86183      1434.1757    
    749000   149.97888     -1.332943e+08  -826.81926      1434.19      
    750000   150.00296     -1.3329441e+08 -831.60698      1434.2042    
    751000   149.96142     -1.3329428e+08 -834.73406      1434.2185    
    752000   150.00067     -1.3329422e+08 -836.25868      1434.2327    
    753000   150.02755     -1.3329441e+08 -838.74968      1434.2469    
    754000   150.01869     -1.3329426e+08 -837.43197      1434.2612    
    755000   150.03246     -1.3329427e+08 -840.72181      1434.2754    
    756000   150.03727     -1.3329424e+08 -843.82114      1434.2897    
    757000   150.03074     -1.3329428e+08 -850.43608      1434.3039    
    758000   150.00345     -1.3329421e+08 -851.84546      1434.3182    
    759000   149.99306     -1.3329413e+08 -852.67662      1434.3324    
    760000   150.0097      -1.3329413e+08 -852.64181      1434.3466    
    761000   149.98513     -1.3329399e+08 -856.69571      1434.3609    
    762000   150.00812     -1.3329401e+08 -859.38843      1434.3751    
    763000   149.98785     -1.332939e+08  -864.2077       1434.3894    
    764000   150.01265     -1.3329398e+08 -864.97328      1434.4036    
    765000   150.00194     -1.3329384e+08 -867.93354      1434.4179    
    766000   150.01694     -1.3329386e+08 -866.52341      1434.4321    
    767000   150.01454     -1.3329394e+08 -871.36664      1434.4463    
    768000   149.99581     -1.3329395e+08 -873.76461      1434.4606    
    769000   149.99568     -1.3329395e+08 -879.33673      1434.4748    
    770000   149.99822     -1.3329387e+08 -882.30145      1434.4891    
    771000   150.01876     -1.3329395e+08 -883.79324      1434.5033    
    772000   149.99478     -1.3329388e+08 -885.46136      1434.5176    
    773000   149.98635     -1.3329371e+08 -892.92217      1434.5318    
    774000   149.99389     -1.3329392e+08 -903.34646      1434.546     
    775000   149.98993     -1.3329375e+08 -899.43396      1434.5603    
    776000   149.98803     -1.3329359e+08 -906.6801       1434.5745    
    777000   149.97609     -1.3329362e+08 -904.59296      1434.5888    
    778000   150.02238     -1.3329356e+08 -901.91836      1434.603     
    779000   149.99578     -1.3329346e+08 -902.35919      1434.6172    
    780000   150.04641     -1.332937e+08  -906.84853      1434.6315    
    781000   149.99033     -1.3329367e+08 -909.22712      1434.6457    
    782000   150.01527     -1.3329359e+08 -916.92632      1434.66      
    783000   150.01924     -1.3329348e+08 -917.46411      1434.6742    
    784000   150.00674     -1.3329352e+08 -918.55925      1434.6885    
    785000   149.99634     -1.3329346e+08 -919.36837      1434.7027    
    786000   149.95857     -1.332934e+08  -917.82975      1434.7169    
    787000   149.97406     -1.3329359e+08 -920.76659      1434.7312    
    788000   149.98765     -1.3329358e+08 -925.99841      1434.7454    
    789000   149.95733     -1.3329337e+08 -933.56755      1434.7597    
    790000   149.97572     -1.3329337e+08 -938.31979      1434.7739    
    791000   149.97233     -1.3329345e+08 -938.76633      1434.7882    
    792000   149.98444     -1.3329326e+08 -935.79205      1434.8024    
    793000   150.00127     -1.3329311e+08 -937.95911      1434.8166    
    794000   150.01482     -1.3329328e+08 -944.80811      1434.8309    
    795000   149.98444     -1.3329325e+08 -950.40697      1434.8451    
    796000   149.99741     -1.3329325e+08 -949.37692      1434.8594    
    797000   149.98819     -1.3329328e+08 -949.02044      1434.8736    
    798000   149.96953     -1.3329313e+08 -946.84388      1434.8879    
    799000   150.00008     -1.3329319e+08 -956.76057      1434.9021    
    800000   149.96367     -1.3329307e+08 -961.79673      1434.9163    
    801000   149.99928     -1.3329316e+08 -963.35808      1434.9306    
    802000   149.99903     -1.3329319e+08 -964.19756      1434.9448    
    803000   149.96534     -1.3329311e+08 -964.76559      1434.9591    
    804000   149.99235     -1.332932e+08  -967.09194      1434.9733    
    805000   149.99142     -1.3329291e+08 -970.98494      1434.9876    
    806000   150.01872     -1.3329315e+08 -977.26841      1435.0018    
    807000   149.97584     -1.3329288e+08 -976.63534      1435.016     
    808000   150.01264     -1.3329289e+08 -978.21281      1435.0303    
    809000   150.01172     -1.3329284e+08 -982.86211      1435.0445    
    810000   150.04606     -1.3329296e+08 -982.18656      1435.0588    
    811000   149.98912     -1.3329263e+08 -987.14668      1435.073     
    812000   150.00201     -1.3329281e+08 -995.77497      1435.0872    
    813000   149.9988      -1.3329273e+08 -998.30934      1435.1015    
    814000   150.02985     -1.3329285e+08 -996.58049      1435.1157    
    815000   150.00088     -1.3329276e+08 -1002.9926      1435.13      
    816000   150.01034     -1.3329283e+08 -997.64423      1435.1442    
    817000   149.98923     -1.3329258e+08 -1001.3197      1435.1585    
    818000   150.02476     -1.3329258e+08 -1003.4737      1435.1727    
    819000   150.03429     -1.3329259e+08 -1012.497       1435.1869    
    820000   150.04693     -1.332927e+08  -1012.1904      1435.2012    
    821000   149.97265     -1.3329245e+08 -1020.0684      1435.2154    
    822000   150.00559     -1.3329251e+08 -1019.5112      1435.2297    
    823000   149.98686     -1.3329252e+08 -1020.9967      1435.2439    
    824000   150.00074     -1.3329239e+08 -1019.7959      1435.2582    
    825000   149.99221     -1.3329231e+08 -1023.9183      1435.2724    
    826000   150.0007      -1.3329233e+08 -1024.3379      1435.2866    
    827000   149.97854     -1.3329233e+08 -1025.6782      1435.3009    
    828000   149.97502     -1.3329235e+08 -1029.0093      1435.3151    
    829000   149.96368     -1.3329225e+08 -1038.9646      1435.3294    
    830000   149.96151     -1.3329236e+08 -1040.8393      1435.3436    
    831000   149.97925     -1.3329219e+08 -1037.2493      1435.3579    
    832000   150.01137     -1.3329229e+08 -1035.2344      1435.3721    
    833000   150.02366     -1.3329224e+08 -1037.8205      1435.3863    
    834000   150.02578     -1.3329223e+08 -1047.3323      1435.4006    
    835000   150.00844     -1.3329229e+08 -1048.6885      1435.4148    
    836000   150.01437     -1.3329217e+08 -1051.831       1435.4291    
    837000   149.99189     -1.3329198e+08 -1051.1601      1435.4433    
    838000   150.02358     -1.3329206e+08 -1060.6157      1435.4575    
    839000   149.98402     -1.3329204e+08 -1064.0417      1435.4718    
    840000   150.01917     -1.3329211e+08 -1064.6153      1435.486     
    841000   149.9996      -1.3329203e+08 -1062.4823      1435.5003    
    842000   150.00553     -1.3329198e+08 -1065.4599      1435.5145    
    843000   149.99608     -1.3329183e+08 -1071.9953      1435.5288    
    844000   150.00188     -1.3329172e+08 -1075.1535      1435.543     
    845000   149.99659     -1.3329195e+08 -1074.9823      1435.5572    
    846000   150.01864     -1.3329197e+08 -1073.2495      1435.5715    
    847000   149.98877     -1.332918e+08  -1077.1006      1435.5857    
    848000   150.01711     -1.332918e+08  -1084.7945      1435.6       
    849000   149.99669     -1.3329174e+08 -1090.853       1435.6142    
    850000   149.99125     -1.3329181e+08 -1094.8233      1435.6285    
    851000   149.95227     -1.3329158e+08 -1095.3043      1435.6427    
    852000   149.98        -1.3329168e+08 -1094.9158      1435.6569    
    853000   149.95753     -1.3329164e+08 -1095.7826      1435.6712    
    854000   149.99759     -1.3329194e+08 -1098.7177      1435.6854    
    855000   149.97235     -1.3329186e+08 -1102.7885      1435.6997    
    856000   149.97561     -1.3329192e+08 -1105.7364      1435.7139    
    857000   149.94494     -1.3329174e+08 -1112.0858      1435.7282    
    858000   149.97509     -1.3329177e+08 -1108.7708      1435.7424    
    859000   149.98566     -1.3329155e+08 -1110.9824      1435.7566    
    860000   149.98321     -1.3329165e+08 -1116.2225      1435.7709    
    861000   150.015       -1.3329146e+08 -1125.2608      1435.7851    
    862000   150.01102     -1.3329134e+08 -1123.6577      1435.7994    
    863000   150.01948     -1.3329143e+08 -1127.6177      1435.8136    
    864000   149.99996     -1.3329132e+08 -1122.8897      1435.8278    
    865000   150.00138     -1.332914e+08  -1123.8751      1435.8421    
    866000   149.97444     -1.3329128e+08 -1125.0286      1435.8563    
    867000   150.01094     -1.3329133e+08 -1132.3651      1435.8706    
    868000   149.99105     -1.3329136e+08 -1146.3775      1435.8848    
    869000   149.98892     -1.3329132e+08 -1149.3229      1435.8991    
    870000   149.97299     -1.332912e+08  -1146.9756      1435.9133    
    871000   149.99634     -1.3329132e+08 -1139.1532      1435.9275    
    872000   149.97421     -1.3329099e+08 -1140.9264      1435.9418    
    873000   149.99974     -1.3329099e+08 -1150.5312      1435.956     
    874000   149.9909      -1.3329105e+08 -1160.3922      1435.9703    
    875000   149.99073     -1.3329097e+08 -1157.6418      1435.9845    
    876000   149.98485     -1.3329107e+08 -1157.7675      1435.9988    
    877000   150.00751     -1.3329108e+08 -1151.4158      1436.013     
    878000   150.00497     -1.332911e+08  -1161.2928      1436.0272    
    879000   149.97446     -1.3329096e+08 -1166.184       1436.0415    
    880000   149.97062     -1.3329094e+08 -1174.4423      1436.0557    
    881000   149.98269     -1.3329084e+08 -1165.3745      1436.07      
    882000   149.94357     -1.3329081e+08 -1167.1638      1436.0842    
    883000   149.98964     -1.3329089e+08 -1168.3676      1436.0985    
    884000   149.99305     -1.3329085e+08 -1179.6589      1436.1127    
    885000   149.99098     -1.3329062e+08 -1188.8069      1436.1269    
    886000   150.01335     -1.3329077e+08 -1189.678       1436.1412    
    887000   149.99115     -1.3329059e+08 -1194.3013      1436.1554    
    888000   149.99894     -1.3329071e+08 -1187.9733      1436.1697    
    889000   150.00341     -1.332906e+08  -1185.7421      1436.1839    
    890000   149.98811     -1.3329055e+08 -1186.1447      1436.1982    
    891000   149.99333     -1.3329051e+08 -1193.6225      1436.2124    
    892000   149.98549     -1.3329042e+08 -1199.4759      1436.2266    
    893000   150.03748     -1.3329048e+08 -1207.3992      1436.2409    
    894000   150.02618     -1.3329036e+08 -1207.1949      1436.2551    
    895000   150.02575     -1.3329041e+08 -1210.0175      1436.2694    
    896000   150.04154     -1.3329043e+08 -1210.3526      1436.2836    
    897000   150.00717     -1.3329036e+08 -1211.4001      1436.2978    
    898000   150.00229     -1.3329041e+08 -1210.8234      1436.3121    
    899000   149.98359     -1.3329039e+08 -1220.3337      1436.3263    
    900000   149.96279     -1.3329026e+08 -1225.3629      1436.3406    
    901000   149.9914      -1.332903e+08  -1219.5087      1436.3548    
    902000   149.96934     -1.3329027e+08 -1216.0245      1436.3691    
    903000   150.02038     -1.3329031e+08 -1220.2411      1436.3833    
    904000   150.01052     -1.3329024e+08 -1231.5362      1436.3975    
    905000   150.00219     -1.3329011e+08 -1232.0152      1436.4118    
    906000   150.02384     -1.3329022e+08 -1235.6714      1436.426     
    907000   149.99989     -1.3329004e+08 -1234.9379      1436.4403    
    908000   149.98957     -1.3328998e+08 -1237.3532      1436.4545    
    909000   150.04968     -1.3329028e+08 -1238.8622      1436.4688    
    910000   149.99234     -1.3329005e+08 -1243.109       1436.483     
    911000   150.01498     -1.3328999e+08 -1248.1536      1436.4972    
    912000   150.01855     -1.3328995e+08 -1255.0661      1436.5115    
    913000   150.01766     -1.3328991e+08 -1258.3117      1436.5257    
    914000   149.95364     -1.332898e+08  -1257.7659      1436.54      
    915000   150.00722     -1.3328992e+08 -1259.0659      1436.5542    
    916000   149.99084     -1.3328992e+08 -1259.4317      1436.5685    
    917000   149.98008     -1.3328969e+08 -1265.3501      1436.5827    
    918000   149.98518     -1.3328965e+08 -1273.3765      1436.5969    
    919000   150.02073     -1.3328955e+08 -1272.8789      1436.6112    
    920000   149.98728     -1.3328961e+08 -1270.0086      1436.6254    
    921000   149.99174     -1.3328955e+08 -1266.8282      1436.6397    
    922000   149.99603     -1.3328961e+08 -1274.0804      1436.6539    
    923000   150.03538     -1.3328962e+08 -1275.822       1436.6681    
    924000   150.017       -1.3328944e+08 -1277.8684      1436.6824    
    925000   150.00018     -1.3328952e+08 -1280.5646      1436.6966    
    926000   150.01022     -1.3328947e+08 -1281.2955      1436.7109    
    927000   150.03808     -1.3328953e+08 -1286.5194      1436.7251    
    928000   150.02038     -1.3328945e+08 -1287.8749      1436.7394    
    929000   150.02033     -1.3328955e+08 -1297.1661      1436.7536    
    930000   150.02644     -1.3328939e+08 -1297.7487      1436.7678    
    931000   149.99517     -1.3328914e+08 -1301.7285      1436.7821    
    932000   149.97054     -1.3328928e+08 -1303.9763      1436.7963    
    933000   150.01336     -1.3328944e+08 -1308.7124      1436.8106    
    934000   149.98016     -1.3328929e+08 -1309.9745      1436.8248    
    935000   150.02135     -1.3328931e+08 -1315.8167      1436.8391    
    936000   150.01236     -1.332892e+08  -1315.8618      1436.8533    
    937000   150.0059      -1.3328914e+08 -1322.7864      1436.8675    
    938000   149.96403     -1.3328911e+08 -1318.489       1436.8818    
    939000   149.96157     -1.3328904e+08 -1324.2404      1436.896     
    940000   149.96067     -1.3328913e+08 -1325.1894      1436.9103    
    941000   149.96694     -1.3328917e+08 -1323.35        1436.9245    
    942000   149.97541     -1.3328899e+08 -1328.1731      1436.9388    
    943000   150.00252     -1.3328895e+08 -1328.754       1436.953     
    944000   149.99718     -1.3328899e+08 -1338.0083      1436.9672    
    945000   149.98592     -1.3328888e+08 -1341.9435      1436.9815    
    946000   149.99715     -1.3328894e+08 -1338.4887      1436.9957    
    947000   149.98942     -1.3328891e+08 -1334.3863      1437.01      
    948000   150.03387     -1.3328886e+08 -1335.5987      1437.0242    
    949000   149.97112     -1.3328874e+08 -1341.2295      1437.0384    
    950000   149.98876     -1.3328872e+08 -1348.9341      1437.0527    
    951000   149.98089     -1.3328866e+08 -1354.1385      1437.0669    
    952000   149.97739     -1.332888e+08  -1355.5174      1437.0812    
    953000   149.99157     -1.3328869e+08 -1356.5962      1437.0954    
    954000   150.02234     -1.332887e+08  -1354.3747      1437.1097    
    955000   149.99403     -1.332885e+08  -1357.9221      1437.1239    
    956000   150.00626     -1.3328866e+08 -1366.6668      1437.1381    
    957000   149.98796     -1.3328858e+08 -1375.2862      1437.1524    
    958000   149.96448     -1.3328842e+08 -1371.4726      1437.1666    
    959000   149.97238     -1.3328857e+08 -1376.7415      1437.1809    
    960000   149.95533     -1.3328849e+08 -1377.0716      1437.1951    
    961000   149.9898      -1.3328848e+08 -1376.1179      1437.2094    
    962000   149.99309     -1.3328834e+08 -1377.7707      1437.2236    
    963000   149.9956      -1.3328835e+08 -1383.9242      1437.2378    
    964000   149.99177     -1.3328828e+08 -1382.3861      1437.2521    
    965000   150.03232     -1.3328828e+08 -1388.0823      1437.2663    
    966000   149.99505     -1.3328825e+08 -1385.7151      1437.2806    
    967000   150.00925     -1.3328826e+08 -1392.0407      1437.2948    
    968000   149.98947     -1.3328824e+08 -1393.7931      1437.3091    
    969000   149.98171     -1.3328814e+08 -1394.4377      1437.3233    
    970000   150.00584     -1.3328806e+08 -1398.4028      1437.3375    
    971000   149.99325     -1.3328812e+08 -1401.6162      1437.3518    
    972000   149.97812     -1.3328812e+08 -1402.3126      1437.366     
    973000   149.99647     -1.3328811e+08 -1408.5463      1437.3803    
    974000   149.9751      -1.3328798e+08 -1410.2573      1437.3945    
    975000   149.98797     -1.3328811e+08 -1418.6446      1437.4087    
    976000   150.00261     -1.3328798e+08 -1423.2966      1437.423     
    977000   149.99019     -1.3328795e+08 -1426.8669      1437.4372    
    978000   150.01997     -1.3328789e+08 -1429.7849      1437.4515    
    979000   149.99416     -1.3328783e+08 -1429.5341      1437.4657    
    980000   150.00569     -1.3328765e+08 -1427.7105      1437.48      
    981000   150.0297      -1.3328766e+08 -1427.1072      1437.4942    
    982000   150.03371     -1.3328775e+08 -1421.9529      1437.5084    
    983000   149.99632     -1.3328769e+08 -1425.2966      1437.5227    
    984000   150.00833     -1.3328776e+08 -1433.7226      1437.5369    
    985000   149.98599     -1.3328754e+08 -1439.4693      1437.5512    
    986000   150.03175     -1.3328758e+08 -1446.0996      1437.5654    
    987000   149.99674     -1.3328753e+08 -1451.6506      1437.5797    
    988000   150.03291     -1.3328758e+08 -1446.554       1437.5939    
    989000   150.005       -1.3328754e+08 -1442.1081      1437.6081    
    990000   149.99494     -1.3328746e+08 -1443.8447      1437.6224    
    991000   149.9824      -1.3328743e+08 -1450.3951      1437.6366    
    992000   150.00679     -1.3328755e+08 -1463.4522      1437.6509    
    993000   149.9756      -1.3328732e+08 -1464.6094      1437.6651    
    994000   149.99133     -1.3328732e+08 -1466.6759      1437.6794    
    995000   150.00462     -1.3328731e+08 -1455.4072      1437.6936    
    996000   150.00717     -1.3328723e+08 -1460.2534      1437.7078    
    997000   150.00667     -1.3328725e+08 -1459.7767      1437.7221    
    998000   149.9924      -1.3328718e+08 -1466.5651      1437.7363    
    999000   149.99042     -1.3328697e+08 -1473.667       1437.7506    
   1000000   149.98866     -1.3328701e+08 -1486.1165      1437.7648    
   1001000   149.97931     -1.3328704e+08 -1476.1405      1437.7791    
   1002000   149.99711     -1.3328707e+08 -1479.8211      1437.7933    
   1003000   149.99524     -1.3328711e+08 -1480.0419      1437.8075    
   1004000   150.00555     -1.332871e+08  -1491.1042      1437.8218    
   1005000   150.0074      -1.3328698e+08 -1490.2878      1437.836     
   1006000   149.98247     -1.3328697e+08 -1502.2978      1437.8503    
   1007000   149.98577     -1.3328692e+08 -1498.243       1437.8645    
   1008000   149.99413     -1.3328691e+08 -1503.8521      1437.8787    
   1009000   149.98364     -1.3328666e+08 -1491.8951      1437.893     
   1010000   150.02646     -1.332868e+08  -1497.3281      1437.9072    
   1011000   149.98956     -1.3328681e+08 -1500.5021      1437.9215    
   1012000   149.97769     -1.3328669e+08 -1509.9169      1437.9357    
   1013000   150.00827     -1.3328668e+08 -1508.0128      1437.95      
   1014000   150.02789     -1.3328686e+08 -1511.895       1437.9642    
   1015000   149.98731     -1.3328647e+08 -1516.4015      1437.9784    
   1016000   150.01526     -1.3328666e+08 -1526.7858      1437.9927    
   1017000   150.01583     -1.3328654e+08 -1526.8002      1438.0069    
   1018000   150.01252     -1.3328659e+08 -1522.8747      1438.0212    
   1019000   149.99226     -1.3328658e+08 -1519.7906      1438.0354    
   1020000   149.98884     -1.332866e+08  -1521.4417      1438.0497    
   1021000   149.99775     -1.3328654e+08 -1529.2149      1438.0639    
   1022000   150.02573     -1.3328645e+08 -1533.8674      1438.0781    
   1023000   150.03013     -1.3328645e+08 -1532.8463      1438.0924    
   1024000   150.02082     -1.3328631e+08 -1532.8443      1438.1066    
   1025000   150.00473     -1.3328637e+08 -1539.6761      1438.1209    
   1026000   149.98291     -1.3328624e+08 -1551.07        1438.1351    
   1027000   149.9657      -1.3328618e+08 -1555.4644      1438.1494    
   1028000   149.9873      -1.3328642e+08 -1553.7083      1438.1636    
   1029000   149.97861     -1.3328621e+08 -1548.9263      1438.1778    
   1030000   150.00264     -1.3328631e+08 -1548.7412      1438.1921    
   1031000   150.00769     -1.3328605e+08 -1550.6601      1438.2063    
   1032000   149.99366     -1.3328597e+08 -1562.5669      1438.2206    
   1033000   149.99465     -1.3328606e+08 -1562.4579      1438.2348    
   1034000   149.9926      -1.3328605e+08 -1567.6919      1438.249     
   1035000   150.00618     -1.3328611e+08 -1562.7982      1438.2633    
   1036000   149.98957     -1.3328603e+08 -1568.5505      1438.2775    
[...]
   4370000   149.9715      -1.3313803e+08 -6800.9195      1485.7615    
   4371000   150.0069      -1.3313794e+08 -6805.0241      1485.7758    
   4372000   149.99172     -1.3313779e+08 -6801.6909      1485.79      
   4373000   150.03569     -1.3313776e+08 -6804.273       1485.8042    
   4374000   150.01732     -1.3313792e+08 -6808.7714      1485.8185    
   4375000   149.99524     -1.331377e+08  -6811.6101      1485.8327    
   4376000   150.0069      -1.3313747e+08 -6814.7584      1485.847     
   4377000   150.03455     -1.3313744e+08 -6819.2425      1485.8612    
   4378000   150.0354      -1.331373e+08  -6814.4057      1485.8755    
   4379000   150.02666     -1.3313717e+08 -6813.0896      1485.8897    
   4380000   150.02013     -1.331371e+08  -6813.9877      1485.9039    
   4381000   150.0269      -1.3313702e+08 -6818.097       1485.9182    
   4382000   150.02901     -1.3313695e+08 -6823.3278      1485.9324    
   4383000   150.02504     -1.3313694e+08 -6826.815       1485.9467    
   4384000   150.01632     -1.3313679e+08 -6824.8075      1485.9609    
   4385000   150.02348     -1.3313677e+08 -6829.9053      1485.9751    
   4386000   149.99875     -1.3313649e+08 -6829.063       1485.9894    
   4387000   150.00253     -1.3313657e+08 -6839.0831      1486.0036    
   4388000   149.98863     -1.3313636e+08 -6841.1923      1486.0179    
   4389000   150.03874     -1.3313641e+08 -6838.2502      1486.0321    
   4390000   149.99786     -1.3313605e+08 -6829.9754      1486.0464    
   4391000   149.99855     -1.3313616e+08 -6832.5479      1486.0606    
   4392000   149.97655     -1.331359e+08  -6834.4879      1486.0748    
   4393000   150.01144     -1.33136e+08   -6847.1664      1486.0891    
   4394000   149.98466     -1.331359e+08  -6848.0419      1486.1033    
   4395000   149.99315     -1.3313569e+08 -6843.2828      1486.1176    
   4396000   150.00495     -1.3313566e+08 -6845.7136      1486.1318    
   4397000   149.99989     -1.3313553e+08 -6846.5696      1486.1461    
   4398000   149.99188     -1.3313532e+08 -6847.0305      1486.1603    
   4399000   149.98545     -1.3313529e+08 -6854.7098      1486.1745    
   4400000   149.99483     -1.3313524e+08 -6859.1546      1486.1888    
   4401000   150.00052     -1.3313523e+08 -6863.0584      1486.203     
   4402000   149.98317     -1.3313504e+08 -6864.2291      1486.2173    
   4403000   149.97032     -1.3313493e+08 -6864.4696      1486.2315    
   4404000   149.98184     -1.3313486e+08 -6863.3541      1486.2458    
   4405000   149.99134     -1.3313484e+08 -6864.8607      1486.26      
   4406000   150.02292     -1.3313469e+08 -6866.4759      1486.2742    
   4407000   150.02644     -1.3313457e+08 -6865.6533      1486.2885    
   4408000   150.00519     -1.3313438e+08 -6868.1286      1486.3027    
   4409000   149.98139     -1.3313436e+08 -6867.1757      1486.317     
   4410000   150.00785     -1.331343e+08  -6872.1504      1486.3312    
   4411000   149.99027     -1.3313412e+08 -6875.4662      1486.3454    
   4412000   150.01138     -1.3313415e+08 -6879.8418      1486.3597    
   4413000   149.98676     -1.3313394e+08 -6880.7192      1486.3739    
   4414000   150.02381     -1.3313398e+08 -6879.7331      1486.3882    
   4415000   150.00826     -1.3313387e+08 -6882.2144      1486.4024    
   4416000   150.01342     -1.331339e+08  -6887.2363      1486.4167    
   4417000   150.04355     -1.3313368e+08 -6881.9428      1486.4309    
   4418000   149.98074     -1.3313347e+08 -6884.4686      1486.4451    
   4419000   150.00386     -1.3313349e+08 -6885.6056      1486.4594    
   4420000   149.98201     -1.3313336e+08 -6894.7226      1486.4736    
   4421000   150.01573     -1.3313337e+08 -6892.2926      1486.4879    
   4422000   150.00455     -1.3313315e+08 -6890.8728      1486.5021    
   4423000   149.99508     -1.3313314e+08 -6887.8523      1486.5164    
   4424000   149.99249     -1.3313311e+08 -6895.0302      1486.5306    
   4425000   149.95223     -1.3313299e+08 -6903.1384      1486.5448    
   4426000   149.9725      -1.3313308e+08 -6910.4996      1486.5591    
   4427000   149.96809     -1.3313281e+08 -6912.8093      1486.5733    
   4428000   149.98982     -1.3313259e+08 -6908.4761      1486.5876    
   4429000   150.00091     -1.3313258e+08 -6913.5009      1486.6018    
   4430000   149.96714     -1.3313249e+08 -6916.6449      1486.6161    
   4431000   149.97481     -1.3313245e+08 -6913.8562      1486.6303    
   4432000   149.97754     -1.3313243e+08 -6912.9405      1486.6445    
   4433000   149.96297     -1.3313213e+08 -6912.7991      1486.6588    
   4434000   150.01523     -1.331321e+08  -6918.3675      1486.673     
   4435000   149.99828     -1.3313208e+08 -6921.148       1486.6873    
   4436000   149.96876     -1.3313203e+08 -6923.618       1486.7015    
   4437000   149.97825     -1.3313195e+08 -6920.1114      1486.7158    
   4438000   150.01996     -1.3313178e+08 -6918.2713      1486.73      
   4439000   149.96652     -1.3313152e+08 -6924.9061      1486.7442    
   4440000   149.98919     -1.3313155e+08 -6934.3522      1486.7585    
   4441000   149.96247     -1.3313137e+08 -6938.8211      1486.7727    
   4442000   149.96592     -1.3313134e+08 -6932.5689      1486.787     
   4443000   149.97336     -1.3313106e+08 -6936.9162      1486.8012    
   4444000   149.99942     -1.3313106e+08 -6938.0282      1486.8154    
   4445000   150.00399     -1.3313093e+08 -6949.0285      1486.8297    
   4446000   149.96987     -1.3313073e+08 -6947.4213      1486.8439    
   4447000   149.98791     -1.3313079e+08 -6954.627       1486.8582    
   4448000   149.95684     -1.3313052e+08 -6943.5016      1486.8724    
   4449000   149.99606     -1.3313073e+08 -6944.0919      1486.8867    
   4450000   149.98591     -1.3313065e+08 -6943.0299      1486.9009    
   4451000   149.96946     -1.3313042e+08 -6949.8604      1486.9151    
   4452000   150.02016     -1.3313047e+08 -6954.4447      1486.9294    
   4453000   149.99507     -1.331301e+08  -6960.6063      1486.9436    
   4454000   150.00822     -1.331302e+08  -6960.6425      1486.9579    
   4455000   149.98951     -1.3313005e+08 -6952.4039      1486.9721    
   4456000   149.98783     -1.3312998e+08 -6953.1675      1486.9864    
   4457000   150.00467     -1.3312988e+08 -6955.0646      1487.0006    
   4458000   150.01119     -1.3312971e+08 -6964.7118      1487.0148    
   4459000   150.0206      -1.3312968e+08 -6966.3035      1487.0291    
   4460000   149.97834     -1.3312948e+08 -6968.385       1487.0433    
   4461000   149.97876     -1.3312949e+08 -6970.7641      1487.0576    
   4462000   149.99604     -1.3312942e+08 -6972.9352      1487.0718    
   4463000   149.9807      -1.3312922e+08 -6974.97        1487.0861    
   4464000   149.99055     -1.3312919e+08 -6975.5742      1487.1003    
   4465000   149.994       -1.331291e+08  -6974.6651      1487.1145    
   4466000   150.00353     -1.3312901e+08 -6973.0439      1487.1288    
   4467000   150.02597     -1.3312898e+08 -6976.7094      1487.143     
   4468000   150.01788     -1.331288e+08  -6986.3817      1487.1573    
   4469000   149.99605     -1.3312862e+08 -6985.0384      1487.1715    
   4470000   149.9945      -1.3312866e+08 -6988.3108      1487.1857    
   4471000   150.00703     -1.3312842e+08 -6983.9578      1487.2       
   4472000   150.01301     -1.3312828e+08 -6990.9765      1487.2142    
   4473000   149.99168     -1.3312821e+08 -6992.1103      1487.2285    
   4474000   149.94943     -1.3312812e+08 -6999.9279      1487.2427    
   4475000   149.99563     -1.3312823e+08 -6999.2902      1487.257     
   4476000   149.9924      -1.3312803e+08 -7001.2993      1487.2712    
   4477000   149.96665     -1.3312799e+08 -7000.8385      1487.2854    
   4478000   149.97572     -1.3312783e+08 -7005.9068      1487.2997    
   4479000   149.97929     -1.3312763e+08 -7004.7187      1487.3139    
   4480000   149.98953     -1.3312755e+08 -7007.3135      1487.3282    
   4481000   149.98825     -1.3312745e+08 -7006.5654      1487.3424    
   4482000   149.98786     -1.3312746e+08 -7011.3312      1487.3567    
   4483000   149.99466     -1.3312732e+08 -7007.482       1487.3709    
   4484000   149.98005     -1.3312733e+08 -7010.9683      1487.3851    
   4485000   149.95824     -1.3312712e+08 -7009.0791      1487.3994    
   4486000   149.98629     -1.3312705e+08 -7016.9365      1487.4136    
   4487000   149.97816     -1.331269e+08  -7026.2905      1487.4279    
   4488000   149.98882     -1.3312695e+08 -7026.9806      1487.4421    
   4489000   150.00018     -1.3312681e+08 -7020.5737      1487.4564    
   4490000   149.98108     -1.3312654e+08 -7019.0746      1487.4706    
   4491000   149.97891     -1.3312657e+08 -7026.0903      1487.4848    
   4492000   150.00276     -1.3312658e+08 -7031.8526      1487.4991    
   4493000   149.99556     -1.3312633e+08 -7033.5202      1487.5133    
   4494000   149.98835     -1.3312627e+08 -7027.5864      1487.5276    
   4495000   149.99735     -1.3312611e+08 -7028.634       1487.5418    
   4496000   150.00667     -1.3312611e+08 -7035.0735      1487.556     
   4497000   150.00258     -1.3312583e+08 -7042.0892      1487.5703    
   4498000   150.00805     -1.331257e+08  -7046.1479      1487.5845    
   4499000   149.99003     -1.3312562e+08 -7039.9967      1487.5988    
   4500000   149.95318     -1.3312548e+08 -7037.5533      1487.613     
   4501000   150.01614     -1.3312549e+08 -7030.6019      1487.6273    
   4502000   149.99532     -1.3312564e+08 -7039.9703      1487.6415    
   4503000   149.98227     -1.331253e+08  -7050.9705      1487.6557    
   4504000   150.02763     -1.3312525e+08 -7051.4837      1487.67      
   4505000   149.98776     -1.3312499e+08 -7050.7048      1487.6842    
   4506000   149.98698     -1.3312492e+08 -7045.6177      1487.6985    
   4507000   150.0117      -1.3312499e+08 -7052.0796      1487.7127    
   4508000   149.99728     -1.331249e+08  -7055.1435      1487.727     
   4509000   149.96255     -1.3312471e+08 -7062.3655      1487.7412    
   4510000   150.00596     -1.3312461e+08 -7065.2814      1487.7554    
   4511000   149.98796     -1.3312453e+08 -7066.4115      1487.7697    
   4512000   150.00616     -1.3312446e+08 -7066.5531      1487.7839    
   4513000   149.98976     -1.3312419e+08 -7058.7824      1487.7982    
   4514000   150.01547     -1.3312427e+08 -7063.5443      1487.8124    
   4515000   149.98883     -1.3312407e+08 -7069.268       1487.8267    
   4516000   150.0211      -1.3312414e+08 -7073.5252      1487.8409    
   4517000   150.01769     -1.331239e+08  -7072.8211      1487.8551    
   4518000   150.01988     -1.3312392e+08 -7071.5937      1487.8694    
   4519000   149.99659     -1.331237e+08  -7075.3896      1487.8836    
   4520000   149.98777     -1.3312358e+08 -7081.2248      1487.8979    
   4521000   149.96829     -1.3312336e+08 -7081.9251      1487.9121    
   4522000   150.00672     -1.3312339e+08 -7083.5909      1487.9264    
   4523000   150.01461     -1.3312319e+08 -7077.7223      1487.9406    
   4524000   150.05019     -1.3312326e+08 -7080.0898      1487.9548    
   4525000   150.03662     -1.3312319e+08 -7079.6671      1487.9691    
   4526000   150.03549     -1.3312309e+08 -7085.1476      1487.9833    
   4527000   150.03795     -1.3312292e+08 -7093.4677      1487.9976    
   4528000   150.06397     -1.331229e+08  -7096.161       1488.0118    
   4529000   150.03007     -1.3312281e+08 -7093.2014      1488.026     
   4530000   150.00867     -1.3312258e+08 -7095.9211      1488.0403    
   4531000   150.0343      -1.3312261e+08 -7099.1811      1488.0545    
   4532000   150.02312     -1.3312243e+08 -7105.2796      1488.0688    
   4533000   150.03476     -1.3312237e+08 -7103.9471      1488.083     
   4534000   150.00353     -1.3312234e+08 -7105.5489      1488.0973    
   4535000   150.01541     -1.331223e+08  -7103.0912      1488.1115    
   4536000   149.99135     -1.3312229e+08 -7108.4155      1488.1257    
   4537000   149.98467     -1.3312192e+08 -7112.8922      1488.14      
   4538000   150.03974     -1.3312188e+08 -7121.3326      1488.1542    
   4539000   150.02376     -1.331217e+08  -7123.526       1488.1685    
   4540000   150.01866     -1.3312163e+08 -7121.6314      1488.1827    
   4541000   149.9713      -1.3312157e+08 -7117.7479      1488.197     
   4542000   149.9995      -1.3312168e+08 -7117.7913      1488.2112    
   4543000   149.95461     -1.3312143e+08 -7124.0925      1488.2254    
   4544000   149.96666     -1.3312129e+08 -7128.8511      1488.2397    
   4545000   149.98325     -1.3312133e+08 -7129.801       1488.2539    
   4546000   149.9879      -1.3312119e+08 -7127.2559      1488.2682    
   4547000   149.97695     -1.3312106e+08 -7129.1248      1488.2824    
   4548000   149.979       -1.3312097e+08 -7126.8127      1488.2967    
   4549000   149.98509     -1.3312082e+08 -7137.3413      1488.3109    
   4550000   150.00798     -1.3312087e+08 -7143.2325      1488.3251    
   4551000   149.99609     -1.3312074e+08 -7134.4205      1488.3394    
   4552000   150.00701     -1.331207e+08  -7136.2479      1488.3536    
   4553000   149.98296     -1.3312043e+08 -7131.7523      1488.3679    
   4554000   150.01833     -1.3312045e+08 -7137.7242      1488.3821    
   4555000   150.01334     -1.3312041e+08 -7144.1239      1488.3963    
   4556000   149.96372     -1.331201e+08  -7150.0839      1488.4106    
   4557000   150.00017     -1.3312012e+08 -7147.0162      1488.4248    
   4558000   149.9876      -1.3311995e+08 -7148.6642      1488.4391    
   4559000   149.98143     -1.3311997e+08 -7150.7013      1488.4533    
   4560000   149.96389     -1.3311986e+08 -7149.8583      1488.4676    
   4561000   149.98815     -1.3311971e+08 -7154.1538      1488.4818    
   4562000   150.01206     -1.3311963e+08 -7153.135       1488.496     
   4563000   149.97398     -1.331195e+08  -7158.9957      1488.5103    
   4564000   150.02004     -1.331195e+08  -7153.9063      1488.5245    
   4565000   150.01952     -1.3311926e+08 -7159.0993      1488.5388    
   4566000   149.99342     -1.3311914e+08 -7158.5095      1488.553     
   4567000   150.01197     -1.3311925e+08 -7166.7277      1488.5673    
   4568000   149.99452     -1.3311906e+08 -7170.6366      1488.5815    
   4569000   149.98828     -1.3311904e+08 -7171.1799      1488.5957    
   4570000   150.00319     -1.3311893e+08 -7172.6002      1488.61      
   4571000   149.99025     -1.3311859e+08 -7170.2578      1488.6242    
   4572000   150.00477     -1.3311855e+08 -7174.699       1488.6385    
   4573000   150.00874     -1.3311872e+08 -7180.171       1488.6527    
   4574000   149.99949     -1.3311828e+08 -7184.7427      1488.667     
   4575000   150.02934     -1.3311828e+08 -7184.2454      1488.6812    
   4576000   150.02011     -1.3311806e+08 -7182.1931      1488.6954    
   4577000   150.03656     -1.3311825e+08 -7184.0667      1488.7097    
   4578000   150.01032     -1.3311793e+08 -7185.6176      1488.7239    
   4579000   150.02639     -1.3311789e+08 -7191.002       1488.7382    
   4580000   150.03998     -1.3311785e+08 -7189.9244      1488.7524    
   4581000   149.99901     -1.3311761e+08 -7194.4725      1488.7666    
   4582000   150.01022     -1.3311756e+08 -7193.1443      1488.7809    
   4583000   150.03148     -1.3311748e+08 -7196.9108      1488.7951    
   4584000   150.03881     -1.3311733e+08 -7195.5341      1488.8094    
   4585000   150.02181     -1.3311736e+08 -7208.2609      1488.8236    
   4586000   150.02036     -1.3311723e+08 -7200.8195      1488.8379    
   4587000   150.01312     -1.3311714e+08 -7202.6905      1488.8521    
   4588000   150.01494     -1.3311711e+08 -7199.4869      1488.8663    
   4589000   149.97654     -1.3311684e+08 -7206.9033      1488.8806    
   4590000   149.97855     -1.3311688e+08 -7208.5179      1488.8948    
   4591000   149.956       -1.3311666e+08 -7209.7076      1488.9091    
   4592000   149.98877     -1.3311676e+08 -7207.4718      1488.9233    
   4593000   150.00097     -1.3311686e+08 -7210.2214      1488.9376    
   4594000   150.00796     -1.3311677e+08 -7210.399       1488.9518    
   4595000   150.00142     -1.3311644e+08 -7218.8299      1488.966     
   4596000   150.00638     -1.3311644e+08 -7219.1224      1488.9803    
   4597000   149.99877     -1.3311628e+08 -7223.3313      1488.9945    
   4598000   149.98122     -1.3311626e+08 -7222.6713      1489.0088    
   4599000   149.96856     -1.3311596e+08 -7222.2606      1489.023     
   4600000   149.98959     -1.3311601e+08 -7221.1952      1489.0373    
   4601000   149.98537     -1.331158e+08  -7219.5095      1489.0515    
   4602000   149.99666     -1.3311566e+08 -7226.6519      1489.0657    
   4603000   150.02218     -1.3311563e+08 -7230.6024      1489.08      
   4604000   150.02023     -1.3311549e+08 -7235.808       1489.0942    
   4605000   149.99722     -1.3311528e+08 -7235.3626      1489.1085    
   4606000   149.97813     -1.3311521e+08 -7236.529       1489.1227    
   4607000   149.99749     -1.3311527e+08 -7233.7411      1489.1369    
   4608000   149.98058     -1.3311493e+08 -7241.1423      1489.1512    
   4609000   150.00571     -1.3311503e+08 -7246.4087      1489.1654    
   4610000   150.0013      -1.3311497e+08 -7249.8346      1489.1797    
   4611000   149.97856     -1.3311484e+08 -7248.3339      1489.1939    
   4612000   149.96134     -1.3311462e+08 -7247.8961      1489.2082    
   4613000   149.97349     -1.3311459e+08 -7243.7121      1489.2224    
   4614000   149.98385     -1.331144e+08  -7248.7607      1489.2366    
   4615000   149.96413     -1.331143e+08  -7256.8023      1489.2509    
   4616000   149.98668     -1.331144e+08  -7263.034       1489.2651    
   4617000   149.97994     -1.3311413e+08 -7260.8889      1489.2794    
   4618000   150.02158     -1.33114e+08   -7262.6758      1489.2936    
   4619000   150.02168     -1.3311386e+08 -7260.3573      1489.3079    
   4620000   149.9866      -1.3311369e+08 -7266.2031      1489.3221    
   4621000   150.02949     -1.3311372e+08 -7263.3598      1489.3363    
   4622000   150.01186     -1.3311364e+08 -7265.836       1489.3506    
   4623000   150.00078     -1.3311368e+08 -7265.9845      1489.3648    
   4624000   150.00457     -1.3311354e+08 -7269.2302      1489.3791    
   4625000   150.00786     -1.3311331e+08 -7270.2547      1489.3933    
   4626000   150.02431     -1.3311325e+08 -7273.8197      1489.4076    
   4627000   149.99853     -1.33113e+08   -7281.7544      1489.4218    
   4628000   149.9984      -1.3311282e+08 -7281.1122      1489.436     
   4629000   150.0083      -1.3311284e+08 -7274.1954      1489.4503    
   4630000   150.00991     -1.3311283e+08 -7277.7813      1489.4645    
   4631000   150.0278      -1.3311255e+08 -7282.0959      1489.4788    
   4632000   150.05121     -1.3311255e+08 -7287.9969      1489.493     
   4633000   150.00962     -1.3311233e+08 -7293.5369      1489.5073    
   4634000   150.0101      -1.3311231e+08 -7292.568       1489.5215    
   4635000   150.01841     -1.3311218e+08 -7287.4452      1489.5357    
   4636000   150.03902     -1.3311198e+08 -7287.8063      1489.55      
   4637000   150.00832     -1.33112e+08   -7287.3012      1489.5642    
   4638000   150.00423     -1.3311207e+08 -7291.4232      1489.5785    
   4639000   150.02764     -1.3311187e+08 -7290.8268      1489.5927    
   4640000   149.97088     -1.3311174e+08 -7294.5297      1489.6069    
   4641000   150.00893     -1.3311184e+08 -7300.7477      1489.6212    
   4642000   150.00918     -1.3311132e+08 -7301.6511      1489.6354    
   4643000   150.04593     -1.3311139e+08 -7304.4577      1489.6497    
   4644000   150.00077     -1.3311122e+08 -7305.763       1489.6639    
   4645000   150.02673     -1.331112e+08  -7308.5221      1489.6782    
   4646000   149.99467     -1.3311099e+08 -7312.6653      1489.6924    
   