LAMMPS (23 Jun 2022)
KOKKOS mode is enabled (src/KOKKOS/kokkos.cpp:105)
  will use up to 4 GPU(s) per node
  using 1 OpenMP thread(s) per MPI task
package kokkos
package kokkos neigh half newton off
#LAMMPS input file

# ------------------------ INITIALIZATION ----------------------------
processors    * * *
units         metal
dimension    3
boundary    p    p    p
atom_style   charge
atom_modify map array sort 0 1

#--------------------------- LAMMPS Data File--------------------------

read_data    relaxed_step.lmp #reset_relaxed.lmp # model_4.lmp # pre_strained.lmp # High_sep_Cu_45.lmp # Cu_111_FR_45_MIN.lmp
Reading data file ...
  orthogonal box = (-314.8477 -522.43942 600) to (1109.3869 540.14923 1100)
  4 by 4 by 2 MPI processor grid
  reading atoms ...
  37948320 atoms
  reading velocities ...
  37948320 velocities
  read_data CPU = 137.282 seconds
#read_dump   dump.min_1862000.lammpstrj 1862000 x y z vx vy vz
variable  temp equal 300
variable  temp_init equal ${temp}*2
variable  temp_init equal 300*2
variable  sratex equal 5e-6 # in 1/ps (0.5 strain after 10ns)
# ------------------------ FORCE FIELDS ------------------------------
pair_style    eam/alloy
pair_coeff    * * Cu01.eam.alloy.txt Cu # Cu

#------------------------- SETTINGS ---------------------------------

#change_box        all x scale 1.015 remap units box

compute csym all centro/atom fcc
#compute peratom all pe/atom

# compute stresses
#compute       sf all stress/atom NULL

#-------------For Lorentz Forces from QEq----------------------------
# Apply forces
#variable qfx atomfile input_fx_new.txt
#variable qfy atomfile input_fy_new.txt
#variable qfz atomfile input_fz_new.txt
#variable qe atom  -(x*v_qfx+y*v_qfy+z*v_qfz)

#fix force_q1 all addforce v_qfx v_qfy v_qfz energy v_qe
#fix_modify force_q1 energy yes

#delete_atoms group exclude
#fix freez hold setforce 0 0 0
#fix_modify force_q2 energy yes
thermo 1000
thermo_style custom step temp pe press lx
thermo_modify flush yes
#min_style fire
#minimize 0.0 1e-4 100000 100000
#--------Thermal Relax---------------------------
velocity all create ${temp_init} 8 rot no dist gaussian
velocity all create 600 8 rot no dist gaussian
timestep  0.002
fix 1 all langevin ${temp} ${temp} 5 8
fix 1 all langevin 300 ${temp} 5 8
fix 1 all langevin 300 300 5 8
fix ensemble all nve
run 50000
Neighbor list info ...
  update every 1 steps, delay 10 steps, check yes
  max neighbors/atom: 2000, page size: 100000
  master list distance cutoff = 7.506786
  ghost atom cutoff = 7.506786
  binsize = 7.506786, bins = 190 142 67
  2 neighbor lists, perpetual/occasional/extra = 1 1 0
  (1) pair eam/alloy/kk, perpetual
      attributes: half, newton off, kokkos_device
      pair build: half/bin/kk/device
      stencil: full/bin/3d
      bin: kk/device
  (2) compute centro/atom, occasional
      attributes: full, newton off
      pair build: full/bin/atomonly
      stencil: full/bin/3d
      bin: standard
Per MPI rank memory allocation (min/avg/max) = 419 | 460.3 | 502.1 Mbytes
   Step          Temp          PotEng         Press            Lx      
         0   600           -1.3404495e+08  3811.5682      1424.2346    
      1000   300.22121     -1.3257586e+08  6372.6112      1424.2346    
      2000   298.3245      -1.3256525e+08  2449.4613      1424.2346    
      3000   295.96589     -1.3254195e+08 -827.08264      1424.2346    
      4000   298.60494     -1.3254348e+08  567.43268      1424.2346    
      5000   300.42089     -1.3255093e+08  2385.2493      1424.2346    
      6000   300.80651     -1.3255562e+08  4051.1724      1424.2346    
      7000   300.34798     -1.3255624e+08  3677.1806      1424.2346    
      8000   299.75968     -1.3255348e+08  2693.6575      1424.2346    
      9000   299.24304     -1.3254885e+08  1743.3774      1424.2346    
     10000   299.49202     -1.3254724e+08  1683.7224      1424.2346    
     11000   299.97739     -1.3254878e+08  2212.8051      1424.2346    
     12000   300.25808     -1.3255074e+08  2759.0392      1424.2346    
     13000   300.32236     -1.325521e+08   2971.3651      1424.2346    
     14000   300.13879     -1.3255181e+08  2767.5951      1424.2346    
     15000   299.91635     -1.3255071e+08  2495.2653      1424.2346    
     16000   299.88098     -1.3254992e+08  2324.9946      1424.2346    
     17000   299.98622     -1.3255016e+08  2427.8555      1424.2346    
     18000   300.04665     -1.325501e+08   2562.5565      1424.2346    
     19000   300.07554     -1.3255085e+08  2684.3499      1424.2346    
     20000   300.02021     -1.3255081e+08  2624.9016      1424.2346    
     21000   299.96946     -1.3255074e+08  2543.3103      1424.2346    
     22000   299.99601     -1.3255064e+08  2453.554       1424.2346    
     23000   299.95022     -1.3255036e+08  2477.2309      1424.2346    
     24000   299.99935     -1.3255054e+08  2515.0601      1424.2346    
     25000   300.0738      -1.3255108e+08  2569.6229      1424.2346    
     26000   300.00241     -1.3255093e+08  2564.2846      1424.2346    
     27000   300.07083     -1.3255081e+08  2550.5847      1424.2346    
     28000   300.04404     -1.3255073e+08  2524.1046      1424.2346    
     29000   299.97781     -1.3255022e+08  2515.3792      1424.2346    
     30000   300.01928     -1.3255049e+08  2527.7672      1424.2346    
     31000   300.01274     -1.3255074e+08  2537.486       1424.2346    
     32000   299.97272     -1.3255038e+08  2541.3931      1424.2346    
     33000   300.00051     -1.3255069e+08  2536.3141      1424.2346    
     34000   300.05033     -1.3255082e+08  2530.5945      1424.2346    
     35000   300.01998     -1.3255062e+08  2536.7442      1424.2346    
     36000   300.00064     -1.3255046e+08  2538.529       1424.2346    
     37000   299.96492     -1.3255063e+08  2537.5651      1424.2346    
     38000   300.01555     -1.3255094e+08  2536.8898      1424.2346    
     39000   300.01752     -1.3255078e+08  2531.5194      1424.2346    
     40000   299.99743     -1.3255069e+08  2535.5209      1424.2346    
     41000   299.98752     -1.3255092e+08  2537.764       1424.2346    
     42000   299.9545      -1.325509e+08   2539.4447      1424.2346    
     43000   299.92478     -1.3255111e+08  2531.8421      1424.2346    
     44000   299.97636     -1.3255091e+08  2537.1153      1424.2346    
     45000   299.92993     -1.3255083e+08  2531.8432      1424.2346    
     46000   299.952       -1.3255069e+08  2541.3686      1424.2346    
     47000   299.97149     -1.3255078e+08  2539.4708      1424.2346    
     48000   299.96476     -1.3255078e+08  2540.3755      1424.2346    
     49000   300.0056      -1.3255076e+08  2535.2898      1424.2346    
     50000   300.01904     -1.3255052e+08  2527.2868      1424.2346    
Loop time of 652.185 on 32 procs for 50000 steps with 37948320 atoms

Performance: 13.248 ns/day, 1.812 hours/ns, 76.665 timesteps/s
72.0% CPU use with 32 MPI tasks x 1 OpenMP threads

MPI task timing breakdown:
Section |  min time  |  avg time  |  max time  |%varavg| %total
---------------------------------------------------------------
Pair    | 228.03     | 240.86     | 250.37     |  38.7 | 36.93
Neigh   | 19.052     | 27.936     | 40.038     | 107.6 |  4.28
Comm    | 39.35      | 48.72      | 57.935     | 122.5 |  7.47
Output  | 0.011026   | 0.60431    | 0.99912    |  37.2 |  0.09
Modify  | 182.34     | 257.79     | 330.68     | 433.0 | 39.53
Other   |            | 76.28      |            |       | 11.70

Nlocal:    1.18588e+06 ave 1.50641e+06 max      854032 min
Histogram: 16 0 0 0 0 0 0 0 0 16
Nghost:         185540 ave      217974 max      152341 min
Histogram: 16 0 0 0 0 0 0 0 0 16
Neighs:    8.55407e+07 ave 1.08664e+08 max 6.16033e+07 min
Histogram: 16 0 0 0 0 0 0 0 0 16
FullNghs:            0 ave           0 max           0 min
Histogram: 32 0 0 0 0 0 0 0 0 0

Total # of neighbors = 2.7373038e+09
Ave neighs/atom = 72.13241
Neighbor list builds = 704
Dangerous builds = 0
unfix ensemble
write_data ${temp}_relaxed_config.lmp
write_data 300_relaxed_config.lmp
System init for write_data ...
#unfix freez
######################################
## NVT Langevin ##
#variable a loop 50
#label loop

#variable Ti equal ${temp}+($a-1)*4
#variable Tf equal ${temp}+$a*4
#reset_ids
#change_box all x scale ${eps} remap units box
fix        2 all deform 1 x erate ${sratex} units box remap x
fix        2 all deform 1 x erate 5e-06 units box remap x
#fix 1 all langevin ${temp} ${temp} 5 98

# Write dump file
#dump        shear all custom 500000 dump.min_*.lammpstrj id x y z # vx vy vz

#dump        defect all custom 100 dump.defect_*.lammpstrj id x y z c_csym
#dump_modify defect thresh c_csym <= 10 thresh c_csym > 4

fix         ensemble all nve
run 5000000
Per MPI rank memory allocation (min/avg/max) = 418.9 | 460.2 | 502 Mbytes
   Step          Temp          PotEng         Press            Lx      
     50000   300.01904     -1.3255052e+08  2527.2868      1424.2346    
     51000   300.03321     -1.3255095e+08  2523.8888      1424.2488    
     52000   299.98222     -1.3255042e+08  2526.3873      1424.2631    
     53000   300.06477     -1.3255077e+08  2523.5692      1424.2773    
     54000   300.03473     -1.325506e+08   2521.3488      1424.2915    
     55000   300.0254      -1.3255097e+08  2514.9651      1424.3058    
     56000   299.8854      -1.3255032e+08  2520.4418      1424.32      
     57000   300.0293      -1.3255097e+08  2503.0602      1424.3343    
     58000   300.00304     -1.3255076e+08  2505.0003      1424.3485    
     59000   299.96338     -1.325506e+08   2509.222       1424.3628    
     60000   300.01876     -1.3255068e+08  2506.9918      1424.377     
     61000   300.09085     -1.3255072e+08  2501.8406      1424.3912    
     62000   300.01206     -1.3255056e+08  2488.9367      1424.4055    
     63000   300.02471     -1.3255044e+08  2487.4634      1424.4197    
     64000   300.01562     -1.325506e+08   2494.7106      1424.434     
     65000   300.03204     -1.3255091e+08  2502.7256      1424.4482    
     66000   300.03467     -1.3255097e+08  2495.6114      1424.4625    
     67000   300.04854     -1.3255073e+08  2494.1702      1424.4767    
     68000   300.03298     -1.3255076e+08  2479.3553      1424.4909    
     69000   300.05691     -1.3255087e+08  2483.416       1424.5052    
     70000   299.93868     -1.3255055e+08  2473.28        1424.5194    
     71000   300.02024     -1.3255071e+08  2465.2024      1424.5337    
     72000   299.98806     -1.3255049e+08  2457.8443      1424.5479    
     73000   299.96294     -1.3255048e+08  2457.0565      1424.5622    
     74000   299.93991     -1.3255056e+08  2466.1866      1424.5764    
     75000   299.97118     -1.3255063e+08  2463.9711      1424.5906    
     76000   300.01574     -1.3255066e+08  2456.3908      1424.6049    
     77000   299.98043     -1.3255049e+08  2448.1181      1424.6191    
     78000   299.97716     -1.3255068e+08  2452.8119      1424.6334    
     79000   299.98152     -1.3255055e+08  2448.8467      1424.6476    
     80000   300.04715     -1.3255081e+08  2439.5166      1424.6618    
     81000   300.01749     -1.3255032e+08  2436.9664      1424.6761    
     82000   300.01246     -1.3255036e+08  2437.0355      1424.6903    
     83000   299.99925     -1.3255016e+08  2445.164       1424.7046    
     84000   300.0492      -1.325506e+08   2445.1677      1424.7188    
     85000   299.93405     -1.3255041e+08  2437.2023      1424.7331    
     86000   299.95851     -1.325504e+08   2428.9366      1424.7473    
     87000   299.94642     -1.3255064e+08  2420.8895      1424.7615    
     88000   299.96866     -1.3255069e+08  2416.9244      1424.7758    
     89000   299.98625     -1.3255075e+08  2421.0143      1424.79      
     90000   299.98211     -1.325507e+08   2417.0765      1424.8043    
     91000   299.97315     -1.3255077e+08  2418.6651      1424.8185    
     92000   299.9826      -1.3255066e+08  2410.6459      1424.8328    
     93000   300.00623     -1.3255041e+08  2407.97        1424.847     
     94000   300.06936     -1.3255093e+08  2399.9804      1424.8612    
     95000   299.99        -1.3255029e+08  2402.634       1424.8755    
     96000   300.00772     -1.3255041e+08  2401.6554      1424.8897    
     97000   300.00829     -1.3255073e+08  2407.0432      1424.904     
     98000   299.95748     -1.3255057e+08  2394.6125      1424.9182    
     99000   300.01592     -1.3255062e+08  2386.1748      1424.9325    
    100000   300.03529     -1.3255042e+08  2385.4478      1424.9467    
    101000   300.06902     -1.3255051e+08  2385.915       1424.9609    
    102000   300.03544     -1.3255071e+08  2377.7557      1424.9752    
    103000   299.97754     -1.3255069e+08  2381.9709      1424.9894    
    104000   299.93796     -1.3255077e+08  2375.2503      1425.0037    
    105000   299.93197     -1.3255057e+08  2369.8581      1425.0179    
    106000   299.90885     -1.325505e+08   2365.0067      1425.0322    
    107000   299.96792     -1.3255075e+08  2357.6175      1425.0464    
    108000   299.93237     -1.3255084e+08  2368.5358      1425.0606    
    109000   299.93325     -1.3255056e+08  2360.1576      1425.0749    
    110000   299.97397     -1.3255058e+08  2364.3969      1425.0891    
    111000   300.03405     -1.3255079e+08  2356.8155      1425.1034    
    112000   299.96128     -1.3255041e+08  2355.6493      1425.1176    
    113000   300.03381     -1.3255036e+08  2351.9226      1425.1318    
    114000   300.07496     -1.3255011e+08  2350.3659      1425.1461    
    115000   300.03095     -1.3255011e+08  2344.5744      1425.1603    
    116000   300.00865     -1.3254993e+08  2342.8515      1425.1746    
    117000   300.04595     -1.3255025e+08  2345.721       1425.1888    
    118000   300.03584     -1.3255024e+08  2343.4829      1425.2031    
    119000   300.06876     -1.325504e+08   2341.4006      1425.2173    
    120000   300.02953     -1.3255018e+08  2340.6812      1425.2315    
    121000   299.98013     -1.3255037e+08  2328.1602      1425.2458    
    122000   300.01674     -1.3255062e+08  2323.4395      1425.26      
    123000   300.03381     -1.3255069e+08  2318.7064      1425.2743    
    124000   300.04405     -1.3255065e+08  2327.6146      1425.2885    
    125000   300.00167     -1.3255034e+08  2333.4368      1425.3028    
    126000   300.03008     -1.3255056e+08  2319.8446      1425.317     
    127000   299.99185     -1.3255033e+08  2308.5155      1425.3312    
    128000   299.96586     -1.3255037e+08  2310.4306      1425.3455    
    129000   300.01545     -1.3255039e+08  2311.9449      1425.3597    
    130000   299.99447     -1.3255072e+08  2310.5159      1425.374     
    131000   299.98876     -1.3255068e+08  2299.9546      1425.3882    
    132000   299.96354     -1.3255051e+08  2298.1683      1425.4025    
    133000   300.0349      -1.3255052e+08  2298.6501      1425.4167    
    134000   300.02567     -1.3255039e+08  2298.3329      1425.4309    
    135000   300.05095     -1.3255054e+08  2289.0812      1425.4452    
    136000   299.98766     -1.3254997e+08  2288.5453      1425.4594    
    137000   299.98759     -1.3254988e+08  2289.338       1425.4737    
    138000   300.07572     -1.3255028e+08  2283.7531      1425.4879    
    139000   300.02643     -1.3255041e+08  2277.4024      1425.5021    
    140000   300.00565     -1.3255051e+08  2274.431       1425.5164    
    141000   300.04162     -1.3255058e+08  2270.4576      1425.5306    
    142000   300.0103      -1.3255075e+08  2265.8168      1425.5449    
    143000   300.00923     -1.3255041e+08  2270.1503      1425.5591    
    144000   299.96694     -1.325505e+08   2264.9926      1425.5734    
    145000   300.04079     -1.3255052e+08  2258.7936      1425.5876    
    146000   300.01135     -1.3255042e+08  2254.0783      1425.6018    
    147000   300.03067     -1.3255058e+08  2252.6081      1425.6161    
    148000   299.9776      -1.3255059e+08  2258.4883      1425.6303    
    149000   300.00113     -1.325506e+08   2252.9969      1425.6446    
    150000   299.94939     -1.325506e+08   2242.1574      1425.6588    
    151000   299.93934     -1.3255056e+08  2238.5396      1425.6731    
    152000   299.93012     -1.325502e+08   2241.2584      1425.6873    
    153000   299.99639     -1.3255042e+08  2245.3851      1425.7015    
    154000   299.9849      -1.3255036e+08  2245.0903      1425.7158    
    155000   300.02862     -1.3255037e+08  2244.747       1425.73      
    156000   299.97624     -1.3255e+08     2237.6651      1425.7443    
    157000   300.01791     -1.3255002e+08  2230.1336      1425.7585    
    158000   300.05856     -1.3255051e+08  2221.5687      1425.7728    
    159000   299.97959     -1.3255011e+08  2220.4669      1425.787     
    160000   299.96875     -1.3255024e+08  2208.4123      1425.8012    
    161000   299.97286     -1.3255026e+08  2204.2963      1425.8155    
    162000   300.02138     -1.3255049e+08  2205.2157      1425.8297    
    163000   299.99988     -1.3255037e+08  2208.0436      1425.844     
    164000   299.98173     -1.325506e+08   2213.5541      1425.8582    
    165000   299.98403     -1.3255039e+08  2207.041       1425.8724    
    166000   299.98167     -1.3255068e+08  2195.9453      1425.8867    
    167000   299.97559     -1.3255046e+08  2188.4733      1425.9009    
    168000   299.95362     -1.3255046e+08  2186.5219      1425.9152    
    169000   300.01424     -1.3255019e+08  2189.3044      1425.9294    
    170000   299.95497     -1.3255002e+08  2194.1167      1425.9437    
    171000   299.92896     -1.325501e+08   2192.0862      1425.9579    
    172000   300.01318     -1.3255026e+08  2192.603       1425.9721    
    173000   300.01639     -1.3255039e+08  2188.1365      1425.9864    
    174000   299.99285     -1.3255053e+08  2184.4327      1426.0006    
    175000   299.98268     -1.3255001e+08  2183.2271      1426.0149    
    176000   300.05697     -1.3254987e+08  2184.4159      1426.0291    
    177000   300.02415     -1.3255041e+08  2176.7134      1426.0434    
    178000   300.00053     -1.3255024e+08  2185.4528      1426.0576    
    179000   299.9914      -1.3255025e+08  2178.7534      1426.0718    
    180000   300.02804     -1.3255013e+08  2172.2557      1426.0861    
    181000   300.02055     -1.3255028e+08  2160.5844      1426.1003    
    182000   300.02712     -1.3255033e+08  2150.957       1426.1146    
    183000   299.96338     -1.3254996e+08  2150.5259      1426.1288    
    184000   299.94878     -1.3254987e+08  2147.8788      1426.1431    
    185000   300.01285     -1.3255021e+08  2157.5522      1426.1573    
    186000   300.01862     -1.3255019e+08  2147.8634      1426.1715    
    187000   299.98804     -1.3254978e+08  2158.9023      1426.1858    
    188000   299.95572     -1.3255009e+08  2140.6308      1426.2       
    189000   300.04992     -1.3255023e+08  2140.2457      1426.2143    
    190000   300.07018     -1.3254996e+08  2130.0517      1426.2285    
    191000   300.00867     -1.3254988e+08  2135.5656      1426.2428    
    192000   300.07435     -1.3254989e+08  2125.6862      1426.257     
    193000   300.03598     -1.3255005e+08  2124.6915      1426.2712    
    194000   300.05925     -1.3255014e+08  2118.96        1426.2855    
    195000   300.02606     -1.3255011e+08  2121.9298      1426.2997    
    196000   300.00167     -1.3255031e+08  2113.8669      1426.314     
    197000   300.06185     -1.3255036e+08  2109.6229      1426.3282    
    198000   299.91594     -1.3254997e+08  2114.9009      1426.3424    
    199000   299.98649     -1.3255015e+08  2112.4817      1426.3567    
    200000   299.97856     -1.3255018e+08  2100.8193      1426.3709    
    201000   299.9483      -1.3254993e+08  2100.6099      1426.3852    
    202000   299.98648     -1.3255018e+08  2102.759       1426.3994    
    203000   299.95203     -1.3255014e+08  2091.5902      1426.4137    
    204000   299.91289     -1.3255e+08     2092.2483      1426.4279    
    205000   299.93735     -1.325499e+08   2089.388       1426.4421    
    206000   299.96424     -1.3254996e+08  2091.3749      1426.4564    
    207000   299.97133     -1.3255016e+08  2089.109       1426.4706    
    208000   299.9776      -1.3255013e+08  2088.379       1426.4849    
    209000   299.98701     -1.3254992e+08  2088.7241      1426.4991    
    210000   300.03011     -1.3255018e+08  2091.011       1426.5134    
    211000   300.03416     -1.325501e+08   2081.3699      1426.5276    
    212000   299.978       -1.3254982e+08  2075.9037      1426.5418    
    213000   299.9272      -1.3255007e+08  2072.1336      1426.5561    
    214000   299.91294     -1.3255016e+08  2066.97        1426.5703    
    215000   299.94787     -1.325501e+08   2069.669       1426.5846    
    216000   299.9626      -1.3254989e+08  2065.1474      1426.5988    
    217000   300.02175     -1.3255026e+08  2055.5461      1426.6131    
    218000   299.977       -1.3254987e+08  2045.8636      1426.6273    
    219000   299.99378     -1.3254999e+08  2049.7796      1426.6415    
    220000   299.97828     -1.3255001e+08  2046.2842      1426.6558    
    221000   299.9715      -1.3254979e+08  2060.1044      1426.67      
    222000   300.00921     -1.3254992e+08  2056.2688      1426.6843    
    223000   300.05171     -1.3255027e+08  2041.6119      1426.6985    
    224000   299.93616     -1.3254978e+08  2027.0311      1426.7127    
    225000   299.93419     -1.3254954e+08  2023.2659      1426.727     
    226000   300.00189     -1.3254986e+08  2029.0615      1426.7412    
    227000   299.99722     -1.3254966e+08  2032.4533      1426.7555    
    228000   299.99006     -1.3254978e+08  2031.6689      1426.7697    
    229000   300.06347     -1.3254986e+08  2024.8102      1426.784     
    230000   300.00459     -1.3254961e+08  2033.588       1426.7982    
    231000   299.91864     -1.3254975e+08  2026.4641      1426.8124    
    232000   299.96736     -1.3255006e+08  2021.9792      1426.8267    
    233000   300.0196      -1.3254998e+08  2006.5341      1426.8409    
    234000   300.02321     -1.325494e+08   2012.3716      1426.8552    
    235000   300.02829     -1.3254964e+08  2010.3094      1426.8694    
    236000   300.09482     -1.3254995e+08  2005.8762      1426.8837    
    237000   299.99321     -1.3254972e+08  2002.455       1426.8979    
    238000   299.96654     -1.3254982e+08  1995.5366      1426.9121    
    239000   299.98669     -1.325497e+08   1982.897       1426.9264    
    240000   300.05003     -1.3254981e+08  1987.1626      1426.9406    
    241000   299.99892     -1.3254941e+08  1988.2196      1426.9549    
    242000   300.08927     -1.3254959e+08  1985.5172      1426.9691    
    243000   300.07578     -1.3254923e+08  1996.103       1426.9834    
    244000   300.09637     -1.3254966e+08  1991.5181      1426.9976    
    245000   300.01031     -1.3254915e+08  1984.505       1427.0118    
    246000   300.07106     -1.3254958e+08  1968.7651      1427.0261    
    247000   300.0299      -1.3254927e+08  1969.1182      1427.0403    
    248000   299.97461     -1.325493e+08   1974.6043      1427.0546    
    249000   300.01067     -1.3254943e+08  1972.7775      1427.0688    
    250000   300.02415     -1.3254961e+08  1968.4027      1427.083     
    251000   299.98253     -1.3254937e+08  1967.2229      1427.0973    
    252000   300.02236     -1.3254962e+08  1964.9447      1427.1115    
    253000   300.01839     -1.3254929e+08  1962.4707      1427.1258    
    254000   300.03176     -1.3254944e+08  1949.4445      1427.14      
    255000   300.067       -1.3254927e+08  1949.7429      1427.1543    
    256000   300.04182     -1.3254952e+08  1940.9694      1427.1685    
    257000   300.0417      -1.3254952e+08  1960.47        1427.1827    
    258000   300.04926     -1.325494e+08   1954.1776      1427.197     
    259000   300.03134     -1.3254936e+08  1954.0816      1427.2112    
    260000   300.03777     -1.3254924e+08  1939.5152      1427.2255    
    261000   300.07082     -1.3254952e+08  1932.2353      1427.2397    
    262000   300.00514     -1.325491e+08   1930.249       1427.254     
    263000   299.98357     -1.3254911e+08  1932.455       1427.2682    
    264000   300.09569     -1.3254953e+08  1925.5536      1427.2824    
    265000   300.05482     -1.3254912e+08  1925.6211      1427.2967    
    266000   300.05524     -1.3254914e+08  1924.9146      1427.3109    
    267000   300.02937     -1.3254949e+08  1921.6225      1427.3252    
    268000   299.9934      -1.3254963e+08  1918.912       1427.3394    
    269000   299.92073     -1.3254951e+08  1913.3362      1427.3537    
    270000   299.95937     -1.3254935e+08  1913.3394      1427.3679    
    271000   299.9823      -1.3254974e+08  1897.6598      1427.3821    
    272000   299.93767     -1.3254941e+08  1904.5401      1427.3964    
    273000   299.99861     -1.3254961e+08  1896.0617      1427.4106    
    274000   300.02403     -1.3254966e+08  1898.5719      1427.4249    
    275000   299.95219     -1.3254967e+08  1893.6963      1427.4391    
    276000   299.93908     -1.3254938e+08  1904.1         1427.4533    
    277000   299.99717     -1.3254953e+08  1901.0286      1427.4676    
    278000   300.03668     -1.3254958e+08  1894.9194      1427.4818    
    279000   299.98858     -1.3254927e+08  1890.3048      1427.4961    
    280000   299.98239     -1.3254951e+08  1888.2257      1427.5103    
    281000   299.90121     -1.3254906e+08  1879.2788      1427.5246    
    282000   300.01761     -1.325492e+08   1877.9911      1427.5388    
    283000   299.9996      -1.3254943e+08  1865.1206      1427.553     
    284000   299.99515     -1.3254912e+08  1871.5762      1427.5673    
    285000   299.95955     -1.3254919e+08  1876.4169      1427.5815    
    286000   300.02609     -1.325493e+08   1872.1184      1427.5958    
    287000   299.97427     -1.3254908e+08  1871.3191      1427.61      
    288000   300.01856     -1.3254905e+08  1861.6012      1427.6243    
    289000   299.96141     -1.3254896e+08  1868.4886      1427.6385    
    290000   300.00186     -1.3254938e+08  1847.9067      1427.6527    
    291000   299.99102     -1.3254923e+08  1846.7882      1427.667     
    292000   299.93826     -1.3254916e+08  1837.7917      1427.6812    
    293000   300.01909     -1.3254929e+08  1848.1094      1427.6955    
    294000   299.97559     -1.3254901e+08  1844.0489      1427.7097    
    295000   300.05821     -1.3254965e+08  1843.3091      1427.724     
    296000   299.97271     -1.3254916e+08  1838.4591      1427.7382    
    297000   300.01562     -1.3254964e+08  1835.047       1427.7524    
    298000   299.96682     -1.3254915e+08  1836.8506      1427.7667    
    299000   299.90528     -1.3254935e+08  1817.8728      1427.7809    
    300000   299.97319     -1.3254924e+08  1819.436       1427.7952    
    301000   299.97198     -1.3254907e+08  1819.8589      1427.8094    
    302000   299.95705     -1.3254871e+08  1835.1305      1427.8237    
    303000   299.99055     -1.3254875e+08  1829.0739      1427.8379    
    304000   300.01825     -1.3254898e+08  1828.2886      1427.8521    
    305000   300.00785     -1.3254901e+08  1817.265       1427.8664    
    306000   299.95153     -1.325491e+08   1812.9075      1427.8806    
    307000   299.94987     -1.325494e+08   1808.7068      1427.8949    
    308000   299.97383     -1.3254957e+08  1803.8633      1427.9091    
    309000   299.91072     -1.32549e+08    1811.3541      1427.9233    
    310000   299.96015     -1.3254935e+08  1799.7794      1427.9376    
    311000   299.93932     -1.3254925e+08  1799.955       1427.9518    
    312000   299.92697     -1.3254955e+08  1791.6664      1427.9661    
    313000   299.9205      -1.3254908e+08  1790.593       1427.9803    
    314000   299.93164     -1.3254912e+08  1789.0358      1427.9946    
    315000   299.94069     -1.3254874e+08  1802.5692      1428.0088    
    316000   299.99614     -1.3254913e+08  1788.8904      1428.023     
    317000   300.02272     -1.3254922e+08  1780.4992      1428.0373    
    318000   299.95304     -1.3254897e+08  1769.5467      1428.0515    
    319000   299.90169     -1.3254905e+08  1766.2429      1428.0658    
    320000   299.9736      -1.325488e+08   1766.9083      1428.08      
    321000   300.03664     -1.3254906e+08  1771.9608      1428.0943    
    322000   300.02062     -1.3254913e+08  1770.8359      1428.1085    
    323000   299.99943     -1.3254883e+08  1773.6605      1428.1227    
    324000   300.01234     -1.3254852e+08  1755.4045      1428.137     
    325000   300.00391     -1.3254877e+08  1757.8811      1428.1512    
    326000   299.95898     -1.3254864e+08  1754.5792      1428.1655    
    327000   299.96919     -1.3254907e+08  1749.0171      1428.1797    
    328000   300.00814     -1.3254892e+08  1748.5981      1428.194     
    329000   299.96752     -1.3254886e+08  1739.1971      1428.2082    
    330000   300.06794     -1.3254896e+08  1738.2253      1428.2224    
    331000   300.04047     -1.3254869e+08  1738.6251      1428.2367    
    332000   300.02234     -1.3254864e+08  1743.6476      1428.2509    
    333000   299.95689     -1.3254856e+08  1741.1345      1428.2652    
    334000   300.00161     -1.3254892e+08  1736.8914      1428.2794    
    335000   299.99664     -1.325489e+08   1728.1447      1428.2936    
    336000   299.98269     -1.3254899e+08  1729.7458      1428.3079    
    337000   299.96502     -1.3254865e+08  1727.9246      1428.3221    
    338000   299.97777     -1.3254873e+08  1729.7262      1428.3364    
    339000   299.93727     -1.325487e+08   1725.1836      1428.3506    
    340000   299.99173     -1.3254904e+08  1715.2198      1428.3649    
    341000   299.94498     -1.3254892e+08  1714.0423      1428.3791    
    342000   299.92548     -1.3254859e+08  1718.2758      1428.3933    
    343000   299.91807     -1.3254848e+08  1714.5714      1428.4076    
    344000   300.00884     -1.3254889e+08  1708.7809      1428.4218    
    345000   299.98521     -1.3254871e+08  1710.3041      1428.4361    
    346000   299.95976     -1.3254859e+08  1701.8131      1428.4503    
    347000   300.01208     -1.3254865e+08  1695.2315      1428.4646    
    348000   299.9925      -1.3254868e+08  1693.7791      1428.4788    
    349000   299.93183     -1.3254824e+08  1685.9572      1428.493     
    350000   300.0692      -1.3254873e+08  1685.3426      1428.5073    
    351000   300.0057      -1.325487e+08   1687.3957      1428.5215    
    352000   300.02121     -1.3254866e+08  1691.4381      1428.5358    
    353000   300.04039     -1.3254854e+08  1688.9721      1428.55      
    354000   300.09036     -1.325485e+08   1675.9401      1428.5643    
    355000   300.01054     -1.325486e+08   1673.7615      1428.5785    
    356000   299.99889     -1.325486e+08   1668.181       1428.5927    
    357000   300.02464     -1.3254844e+08  1662.6923      1428.607     
    358000   299.99423     -1.3254818e+08  1665.6557      1428.6212    
    359000   300.00722     -1.3254814e+08  1674.443       1428.6355    
    360000   300.02485     -1.3254848e+08  1665.5356      1428.6497    
    361000   300.02398     -1.3254853e+08  1661.6397      1428.6639    
    362000   300.01        -1.3254852e+08  1653.6829      1428.6782    
    363000   300.00377     -1.3254852e+08  1654.8378      1428.6924    
    364000   300.01176     -1.3254825e+08  1660.0263      1428.7067    
    365000   299.96489     -1.3254831e+08  1658.7235      1428.7209    
    366000   299.97643     -1.3254806e+08  1648.2336      1428.7352    
    367000   299.99677     -1.325484e+08   1631.9458      1428.7494    
    368000   300.0292      -1.3254848e+08  1624.7111      1428.7636    
    369000   300.00367     -1.3254806e+08  1632.2931      1428.7779    
    370000   300.01951     -1.3254823e+08  1637.3557      1428.7921    
    371000   300.07495     -1.3254837e+08  1640.1146      1428.8064    
    372000   299.98201     -1.3254866e+08  1632.9051      1428.8206    
    373000   299.99546     -1.3254861e+08  1627.5917      1428.8349    
    374000   300.01615     -1.325484e+08   1624.0521      1428.8491    
    375000   300.01023     -1.3254823e+08  1622.1011      1428.8633    
    376000   300.03128     -1.3254812e+08  1607.9329      1428.8776    
    377000   300.02918     -1.325477e+08   1612.4646      1428.8918    
    378000   300.03268     -1.3254777e+08  1604.8766      1428.9061    
    379000   299.99248     -1.3254799e+08  1618.8451      1428.9203    
    380000   300.01252     -1.3254817e+08  1616.6901      1428.9346    
    381000   299.98643     -1.3254786e+08  1611.3579      1428.9488    
    382000   299.96927     -1.3254806e+08  1597.7827      1428.963     
    383000   299.97733     -1.3254792e+08  1590.7924      1428.9773    
    384000   300.01981     -1.325481e+08   1594.0756      1428.9915    
    385000   299.98356     -1.3254794e+08  1590.7487      1429.0058    
    386000   299.96997     -1.3254793e+08  1587.5375      1429.02      
    387000   299.90761     -1.3254781e+08  1580.4226      1429.0343    
    388000   300.00817     -1.3254798e+08  1589.8852      1429.0485    
    389000   299.98349     -1.3254815e+08  1581.9747      1429.0627    
    390000   300.02707     -1.3254799e+08  1590.9756      1429.077     
    391000   299.96945     -1.3254766e+08  1578.37        1429.0912    
    392000   300.04064     -1.3254791e+08  1573.9924      1429.1055    
    393000   300.10423     -1.3254807e+08  1566.4121      1429.1197    
    394000   300.00056     -1.325476e+08   1569.5844      1429.1339    
    395000   300.06958     -1.3254805e+08  1559.4443      1429.1482    
    396000   299.99706     -1.325479e+08   1561.2616      1429.1624    
    397000   299.97599     -1.325479e+08   1551.2634      1429.1767    
    398000   300.00053     -1.3254784e+08  1558.4706      1429.1909    
    399000   300.00963     -1.3254821e+08  1558.4291      1429.2052    
    400000   299.95678     -1.3254819e+08  1556.7527      1429.2194    
    401000   300.01074     -1.3254826e+08  1552.9578      1429.2336    
    402000   299.96103     -1.3254799e+08  1546.9739      1429.2479    
    403000   299.94654     -1.3254768e+08  1542.5948      1429.2621    
    404000   300.03457     -1.3254755e+08  1536.6914      1429.2764    
    405000   300.01403     -1.3254774e+08  1531.5121      1429.2906    
    406000   300.00969     -1.3254787e+08  1532.2697      1429.3049    
    407000   300.0393      -1.3254779e+08  1541.4986      1429.3191    
    408000   299.97002     -1.3254767e+08  1531.2409      1429.3333    
    409000   300.03391     -1.3254748e+08  1527.7706      1429.3476    
    410000   299.9839      -1.3254737e+08  1517.8428      1429.3618    
    411000   300.06088     -1.3254768e+08  1519.0996      1429.3761    
    412000   299.977       -1.3254771e+08  1529.0192      1429.3903    
    413000   299.97426     -1.3254776e+08  1523.9951      1429.4046    
    414000   299.98498     -1.3254777e+08  1522.5392      1429.4188    
    415000   300.01972     -1.3254799e+08  1509.3505      1429.433     
    416000   300.00764     -1.3254761e+08  1498.2262      1429.4473    
    417000   299.95382     -1.3254725e+08  1498.2905      1429.4615    
    418000   300.02934     -1.3254754e+08  1496.6424      1429.4758    
    419000   300.02062     -1.3254746e+08  1499.864       1429.49      
    420000   299.96156     -1.3254725e+08  1504.9293      1429.5042    
    421000   300.09538     -1.3254738e+08  1508.7157      1429.5185    
    422000   300.10166     -1.3254741e+08  1487.4697      1429.5327    
    423000   300.07121     -1.3254714e+08  1482.3985      1429.547     
    424000   300.07026     -1.3254703e+08  1478.0909      1429.5612    
    425000   300.08186     -1.325472e+08   1488.5192      1429.5755    
    426000   300.03556     -1.325473e+08   1487.1121      1429.5897    
    427000   300.02211     -1.3254743e+08  1491.0876      1429.6039    
    428000   299.97796     -1.3254737e+08  1471.1145      1429.6182    
    429000   299.99952     -1.325474e+08   1472.0821      1429.6324    
    430000   300.01235     -1.3254756e+08  1460.098       1429.6467    
    431000   299.99422     -1.3254756e+08  1465.8703      1429.6609    
    432000   299.92787     -1.3254738e+08  1462.1915      1429.6752    
    433000   300.00515     -1.3254773e+08  1456.2529      1429.6894    
    434000   300.02428     -1.3254746e+08  1461.3151      1429.7036    
    435000   300.04554     -1.3254709e+08  1455.1178      1429.7179    
    436000   300.0036      -1.3254731e+08  1449.0597      1429.7321    
    437000   300.04165     -1.3254755e+08  1442.07        1429.7464    
    438000   300.00339     -1.3254741e+08  1448.3387      1429.7606    
    439000   300.0034      -1.3254742e+08  1452.7237      1429.7749    
    440000   300.02111     -1.3254734e+08  1450.2548      1429.7891    
    441000   299.94917     -1.3254708e+08  1446.8711      1429.8033    
    442000   299.94271     -1.3254746e+08  1439.6691      1429.8176    
    443000   299.91825     -1.3254758e+08  1440.2373      1429.8318    
    444000   299.93424     -1.3254754e+08  1435.0464      1429.8461    
    445000   299.98888     -1.3254754e+08  1432.9201      1429.8603    
    446000   299.92313     -1.3254751e+08  1431.5119      1429.8745    
    447000   299.87328     -1.3254733e+08  1429.7385      1429.8888    
    448000   299.93633     -1.3254736e+08  1423.9508      1429.903     
    449000   299.9815      -1.3254708e+08  1410.2834      1429.9173    
    450000   299.97669     -1.3254753e+08  1411.0032      1429.9315    
    451000   299.99773     -1.3254734e+08  1420.213       1429.9458    
    452000   299.99232     -1.3254717e+08  1419.2441      1429.96      
    453000   300.00674     -1.3254722e+08  1411.6855      1429.9742    
    454000   299.96336     -1.3254685e+08  1405.3276      1429.9885    
    455000   299.95394     -1.3254669e+08  1399.446       1430.0027    
    456000   299.97514     -1.3254685e+08  1400.1676      1430.017     
    457000   299.95089     -1.3254733e+08  1396.8635      1430.0312    
    458000   299.91769     -1.3254744e+08  1393.8771      1430.0455    
    459000   299.91937     -1.3254732e+08  1395.7536      1430.0597    
    460000   299.9002      -1.3254706e+08  1384.482       1430.0739    
    461000   299.9721      -1.3254705e+08  1375.6487      1430.0882    
    462000   299.91789     -1.3254704e+08  1377.3987      1430.1024    
    463000   299.92707     -1.3254709e+08  1380.446       1430.1167    
    464000   299.91982     -1.3254688e+08  1372.7309      1430.1309    
    465000   299.98663     -1.3254677e+08  1370.6465      1430.1452    
    466000   300.01475     -1.3254691e+08  1365.3406      1430.1594    
    467000   300.00226     -1.3254701e+08  1358.2723      1430.1736    
    468000   299.98371     -1.3254664e+08  1364.7863      1430.1879    
    469000   300.08105     -1.3254722e+08  1365.1181      1430.2021    
    470000   300.0348      -1.325467e+08   1366.5936      1430.2164    
    471000   299.97079     -1.325468e+08   1368.4869      1430.2306    
    472000   299.96875     -1.3254684e+08  1354.5129      1430.2448    
    473000   299.95316     -1.3254657e+08  1347.1049      1430.2591    
    474000   300.03852     -1.3254689e+08  1346.5306      1430.2733    
    475000   299.99663     -1.3254702e+08  1337.559       1430.2876    
    476000   299.94219     -1.325467e+08   1349.0165      1430.3018    
    477000   299.99326     -1.3254677e+08  1350.9567      1430.3161    
    478000   299.98932     -1.3254685e+08  1343.7086      1430.3303    
    479000   299.98205     -1.3254665e+08  1332.7486      1430.3445    
    480000   300.00943     -1.3254676e+08  1325.9127      1430.3588    
    481000   299.98331     -1.3254656e+08  1329.0567      1430.373     
    482000   299.97256     -1.3254662e+08  1332.3683      1430.3873    
    483000   299.99566     -1.3254664e+08  1326           1430.4015    
    484000   299.99951     -1.3254659e+08  1320.4539      1430.4158    
    485000   300.06554     -1.3254707e+08  1317.2242      1430.43      
    486000   299.98031     -1.3254655e+08  1321.7508      1430.4442    
    487000   299.99462     -1.3254657e+08  1316.8327      1430.4585    
    488000   300.00314     -1.3254625e+08  1311.4844      1430.4727    
    489000   300.03514     -1.3254643e+08  1306.4484      1430.487     
    490000   299.99643     -1.3254628e+08  1301.918       1430.5012    
    491000   300.03453     -1.3254658e+08  1303.9547      1430.5155    
    492000   300.03351     -1.3254673e+08  1298.9254      1430.5297    
    493000   299.95698     -1.3254642e+08  1305.0716      1430.5439    
    494000   300.01049     -1.3254653e+08  1306.3679      1430.5582    
    495000   299.95551     -1.3254657e+08  1302.0922      1430.5724    
    496000   300.02115     -1.3254643e+08  1296.5604      1430.5867    
    497000   299.96447     -1.3254633e+08  1291.1645      1430.6009    
    498000   299.97683     -1.3254648e+08  1282.6252      1430.6152    
    499000   299.95283     -1.3254635e+08  1282.8965      1430.6294    
    500000   299.94711     -1.3254631e+08  1276.5126      1430.6436    
    501000   300.01889     -1.325464e+08   1273.8892      1430.6579    
    502000   299.98182     -1.3254588e+08  1268.2301      1430.6721    
    503000   299.97808     -1.325457e+08   1264.7331      1430.6864    
    504000   300.08261     -1.3254631e+08  1265.9423      1430.7006    
    505000   299.98461     -1.325461e+08   1272.1261      1430.7148    
    506000   300.02674     -1.3254628e+08  1269.8969      1430.7291    
    507000   299.97644     -1.3254601e+08  1258.2128      1430.7433    
    508000   299.99431     -1.3254582e+08  1254.5549      1430.7576    
    509000   299.99188     -1.3254592e+08  1253.5336      1430.7718    
    510000   300.01306     -1.3254611e+08  1254.0146      1430.7861    
    511000   300.00198     -1.3254627e+08  1252.1466      1430.8003    
    512000   299.99874     -1.3254623e+08  1245.6754      1430.8145    
    513000   299.94415     -1.3254609e+08  1237.4971      1430.8288    
    514000   299.93166     -1.3254608e+08  1231.9663      1430.843     
    515000   299.91616     -1.3254614e+08  1235.0135      1430.8573    
    516000   299.99728     -1.3254588e+08  1242.3837      1430.8715    
    517000   300.05313     -1.3254627e+08  1236.4018      1430.8858    
    518000   300.0065      -1.3254578e+08  1237.5068      1430.9       
    519000   300.0064      -1.3254622e+08  1219.472       1430.9142    
    520000   299.99139     -1.3254575e+08  1222.142       1430.9285    
    521000   300.00881     -1.3254593e+08  1221.2234      1430.9427    
    522000   300.00246     -1.32546e+08    1215.0347      1430.957     
    523000   299.99451     -1.3254585e+08  1212.2375      1430.9712    
    524000   299.99498     -1.3254581e+08  1212.7003      1430.9855    
    525000   299.92712     -1.3254578e+08  1213.8771      1430.9997    
    526000   299.93934     -1.3254546e+08  1215.4699      1431.0139    
    527000   300.0298      -1.3254573e+08  1213.9086      1431.0282    
    528000   299.983       -1.3254568e+08  1203.9817      1431.0424    
    529000   300.01535     -1.3254585e+08  1191.1451      1431.0567    
    530000   300.02093     -1.3254569e+08  1194.1111      1431.0709    
    531000   300.03671     -1.3254547e+08  1195.9624      1431.0851    
    532000   299.97334     -1.3254572e+08  1196.14        1431.0994    
    533000   300.05328     -1.3254586e+08  1193.5189      1431.1136    
    534000   299.94836     -1.3254561e+08  1196.0132      1431.1279    
    535000   300.03194     -1.3254608e+08  1188.1569      1431.1421    
    536000   299.9461      -1.3254559e+08  1181.0877      1431.1564    
    537000   300.03532     -1.3254598e+08  1180.3067      1431.1706    
    538000   299.92312     -1.3254549e+08  1171.0087      1431.1848    
    539000   299.93948     -1.3254581e+08  1176.8147      1431.1991    
    540000   300.03751     -1.3254544e+08  1180.2744      1431.2133    
    541000   300.02644     -1.325454e+08   1172.3861      1431.2276    
    542000   300.02598     -1.3254539e+08  1168.5004      1431.2418    
    543000   300.02177     -1.325454e+08   1158.1781      1431.2561    
    544000   299.99836     -1.3254534e+08  1152.2427      1431.2703    
    545000   300.021       -1.3254543e+08  1151.98        1431.2845    
    546000   299.99297     -1.3254551e+08  1151.4453      1431.2988    
    547000   300.02892     -1.3254537e+08  1153.9156      1431.313     
    548000   300.01787     -1.3254546e+08  1149.1813      1431.3273    
    549000   299.965       -1.3254527e+08  1155.6856      1431.3415    
    550000   299.98321     -1.3254542e+08  1152.0861      1431.3558    
    551000   299.9883      -1.3254506e+08  1149.2281      1431.37      
    552000   300.04707     -1.3254532e+08  1131.9649      1431.3842    
    553000   299.99995     -1.3254556e+08  1132.0495      1431.3985    
    554000   299.99452     -1.3254526e+08  1132.7999      1431.4127    
    555000   299.99948     -1.3254546e+08  1138.9912      1431.427     
    556000   299.97782     -1.3254547e+08  1135.5177      1431.4412    
    557000   300.00227     -1.3254513e+08  1129.4449      1431.4554    
    558000   299.94369     -1.3254513e+08  1123.9058      1431.4697    
    559000   299.91337     -1.3254559e+08  1107.4344      1431.4839    
    560000   299.92367     -1.3254565e+08  1108.8926      1431.4982    
    561000   299.90089     -1.3254549e+08  1110.044       1431.5124    
    562000   299.88442     -1.3254538e+08  1115.9929      1431.5267    
    563000   299.96571     -1.3254522e+08  1113.3698      1431.5409    
    564000   299.99785     -1.3254505e+08  1113.6938      1431.5551    
    565000   300.0233      -1.3254521e+08  1104.3042      1431.5694    
    566000   299.97928     -1.3254525e+08  1102.2358      1431.5836    
    567000   299.98887     -1.3254532e+08  1095.0112      1431.5979    
    568000   299.91919     -1.3254518e+08  1099.1626      1431.6121    
    569000   300.0413      -1.3254507e+08  1089.1084      1431.6264    
    570000   300.03356     -1.3254479e+08  1089.2405      1431.6406    
    571000   299.99445     -1.3254494e+08  1080.7096      1431.6548    
    572000   300.07464     -1.3254486e+08  1081.6845      1431.6691    
    573000   300.05572     -1.3254505e+08  1071.8849      1431.6833    
    574000   299.98416     -1.3254486e+08  1078.1497      1431.6976    
    575000   299.9584      -1.3254496e+08  1071.8191      1431.7118    
    576000   299.92039     -1.3254502e+08  1066.2703      1431.7261    
    577000   299.95611     -1.3254507e+08  1074.9473      1431.7403    
    578000   299.94023     -1.3254501e+08  1066.9918      1431.7545    
    579000   299.93762     -1.3254466e+08  1064.8709      1431.7688    
    580000   300.02763     -1.3254504e+08  1060.5937      1431.783     
    581000   300.02326     -1.3254481e+08  1060.8779      1431.7973    
    582000   300.03158     -1.3254461e+08  1059.9301      1431.8115    
    583000   300.03386     -1.325448e+08   1054.1215      1431.8257    
    584000   300.00507     -1.3254451e+08  1047.6625      1431.84      
    585000   299.93572     -1.3254444e+08  1050.2427      1431.8542    
    586000   299.97787     -1.3254486e+08  1049.003       1431.8685    
    587000   299.99233     -1.3254485e+08  1051.358       1431.8827    
    588000   300.004       -1.3254476e+08  1043.6453      1431.897     
    589000   300.00114     -1.3254495e+08  1036.8612      1431.9112    
    590000   299.99888     -1.3254453e+08  1025.4064      1431.9254    
    591000   300.03388     -1.3254461e+08  1029.5678      1431.9397    
    592000   300.01901     -1.3254465e+08  1033.8988      1431.9539    
    593000   299.99224     -1.3254444e+08  1024.981       1431.9682    
    594000   300.02008     -1.3254472e+08  1015.2407      1431.9824    
    595000   300.02839     -1.3254452e+08  1022.2628      1431.9967    
    596000   299.97117     -1.3254464e+08  1025.7726      1432.0109    
    597000   299.97027     -1.3254454e+08  1019.4794      1432.0251    
    598000   299.95897     -1.3254434e+08  1016.1732      1432.0394    
    599000   299.99726     -1.3254465e+08  1002.77        1432.0536    
    600000   300.0699      -1.3254442e+08  998.90561      1432.0679    
    601000   299.98964     -1.3254433e+08  1004.9513      1432.0821    
    602000   299.9995      -1.3254437e+08  1003.2728      1432.0964    
    603000   300.02927     -1.3254452e+08  1002.5419      1432.1106    
    604000   299.99673     -1.3254444e+08  998.65623      1432.1248    
    605000   299.98321     -1.3254439e+08  1000.0939      1432.1391    
    606000   300.01636     -1.3254434e+08  984.72142      1432.1533    
    607000   299.99929     -1.3254423e+08  985.14428      1432.1676    
    608000   300.03255     -1.3254452e+08  978.57617      1432.1818    
    609000   300.01116     -1.3254448e+08  988.03883      1432.1961    
    610000   300.01108     -1.3254468e+08  986.64971      1432.2103    
    611000   299.97953     -1.3254431e+08  988.00286      1432.2245    
    612000   299.9767      -1.3254454e+08  966.15954      1432.2388    
    613000   300.00028     -1.3254417e+08  967.35529      1432.253     
    614000   299.92332     -1.3254395e+08  969.17039      1432.2673    
    615000   300.02533     -1.3254459e+08  970.04888      1432.2815    
    616000   299.95536     -1.3254409e+08  969.36041      1432.2957    
    617000   299.91519     -1.3254386e+08  963.13956      1432.31      
    618000   300.04977     -1.3254404e+08  958.95367      1432.3242    
    619000   299.96332     -1.325443e+08   948.11286      1432.3385    
    620000   300.01597     -1.3254422e+08  949.54658      1432.3527    
    621000   299.92484     -1.3254391e+08  960.08156      1432.367     
    622000   299.94858     -1.3254405e+08  963.1296       1432.3812    
    623000   299.98355     -1.3254407e+08  946.73021      1432.3954    
    624000   300.007       -1.3254409e+08  936.71213      1432.4097    
    625000   299.93011     -1.325439e+08   927.94248      1432.4239    
    626000   299.98442     -1.3254407e+08  935.3595       1432.4382    
    627000   300.00998     -1.3254383e+08  939.89634      1432.4524    
    628000   300.05327     -1.3254401e+08  941.00982      1432.4667    
    629000   300.02798     -1.3254377e+08  932.98635      1432.4809    
    630000   299.99287     -1.3254354e+08  930.38243      1432.4951    
    631000   300.01825     -1.3254372e+08  918.64453      1432.5094    
    632000   300.00556     -1.3254338e+08  918.37511      1432.5236    
    633000   300.03725     -1.3254346e+08  913.63117      1432.5379    
    634000   300.00996     -1.3254359e+08  911.22569      1432.5521    
    635000   300.07637     -1.3254348e+08  912.74828      1432.5664    
    636000   300.04216     -1.325433e+08   913.37211      1432.5806    
    637000   300.07546     -1.3254362e+08  909.47465      1432.5948    
    638000   300.03066     -1.325434e+08   904.68644      1432.6091    
    639000   299.99419     -1.3254359e+08  900.69696      1432.6233    
    640000   300.00497     -1.3254366e+08  897.17959      1432.6376    
    641000   300.02731     -1.3254361e+08  895.2577       1432.6518    
    642000   300.00482     -1.3254339e+08  886.90711      1432.666     
    643000   299.99045     -1.3254324e+08  884.64398      1432.6803    
    644000   299.98077     -1.3254352e+08  888.73358      1432.6945    
    645000   300.0482      -1.3254363e+08  901.35097      1432.7088    
    646000   300.01072     -1.3254336e+08  892.54333      1432.723     
    647000   300.01408     -1.325434e+08   878.9623       1432.7373    
    648000   299.98153     -1.3254345e+08  865.64818      1432.7515    
    649000   300.00212     -1.325432e+08   874.50222      1432.7657    
    650000   299.99864     -1.3254327e+08  872.57767      1432.78      
    651000   299.99087     -1.3254371e+08  874.85522      1432.7942    
    652000   299.97926     -1.3254351e+08  868.81221      1432.8085    
    653000   299.93918     -1.325435e+08   871.20628      1432.8227    
    654000   299.9144      -1.3254331e+08  869.5259       1432.837     
    655000   299.9975      -1.3254336e+08  864.00981      1432.8512    
    656000   299.97924     -1.3254305e+08  856.66774      1432.8654    
    657000   300.07134     -1.3254325e+08  856.04854      1432.8797    
    658000   299.98978     -1.3254283e+08  863.66468      1432.8939    
    659000   300.08021     -1.32543e+08    851.31139      1432.9082    
    660000   300.01069     -1.3254265e+08  846.22374      1432.9224    
    661000   300.05109     -1.3254312e+08  834.97146      1432.9367    
    662000   300.04927     -1.3254299e+08  837.93581      1432.9509    
    663000   300.00116     -1.32543e+08    847.84152      1432.9651    
    664000   300.03295     -1.3254334e+08  840.04436      1432.9794    
    665000   299.97236     -1.325429e+08   831.32472      1432.9936    
    666000   300.01434     -1.3254276e+08  829.1333       1433.0079    
    667000   299.98153     -1.3254278e+08  824.04151      1433.0221    
    668000   300.06153     -1.325428e+08   826.66903      1433.0363    
    669000   299.99579     -1.3254273e+08  834.05412      1433.0506    
    670000   300.01717     -1.325427e+08   825.22701      1433.0648    
    671000   300.03681     -1.3254276e+08  806.4908       1433.0791    
    672000   300.05745     -1.3254276e+08  804.13264      1433.0933    
    673000   300.06328     -1.3254258e+08  809.22285      1433.1076    
    674000   300.00965     -1.3254254e+08  811.00227      1433.1218    
    675000   300.03119     -1.3254259e+08  805.87831      1433.136     
    676000   300.08303     -1.3254245e+08  808.87167      1433.1503    
    677000   300.057       -1.3254218e+08  805.77884      1433.1645    
    678000   300.04579     -1.3254235e+08  802.53089      1433.1788    
    679000   300.08629     -1.3254253e+08  795.27767      1433.193     
    680000   300.03212     -1.3254232e+08  791.97928      1433.2073    
    681000   300.07808     -1.3254243e+08  792.91732      1433.2215    
    682000   299.95482     -1.3254216e+08  787.10267      1433.2357    
    683000   300.0352      -1.3254267e+08  780.17225      1433.25      
    684000   299.98788     -1.3254252e+08  774.70165      1433.2642    
    685000   299.97643     -1.3254224e+08  778.91289      1433.2785    
    686000   299.99536     -1.3254262e+08  770.14742      1433.2927    
    687000   299.93673     -1.3254245e+08  773.12252      1433.307     
    688000   299.95131     -1.3254287e+08  771.2202       1433.3212    
    689000   299.95262     -1.3254267e+08  776.2107       1433.3354    
    690000   299.94445     -1.3254256e+08  775.38394      1433.3497    
    691000   299.96984     -1.3254257e+08  768.38617      1433.3639    
    692000   300.00142     -1.3254266e+08  764.49307      1433.3782    
    693000   299.9729      -1.3254241e+08  752.22661      1433.3924    
    694000   299.90953     -1.3254206e+08  753.44142      1433.4067    
    695000   299.98356     -1.3254244e+08  745.20426      1433.4209    
    696000   299.96016     -1.3254227e+08  757.05255      1433.4351    
    697000   300.01299     -1.3254253e+08  755.22048      1433.4494    
    698000   299.95404     -1.3254227e+08  750.16141      1433.4636    
    699000   299.9869      -1.3254236e+08  744.88816      1433.4779    
    700000   299.9293      -1.3254182e+08  737.48827      1433.4921    
    701000   299.99567     -1.3254231e+08  733.98303      1433.5063    
    702000   299.90215     -1.3254182e+08  730.51087      1433.5206    
    703000   300.01245     -1.3254233e+08  735.62125      1433.5348    
    704000   300.01973     -1.3254235e+08  736.07198      1433.5491    
    705000   299.95436     -1.3254209e+08  732.9083       1433.5633    
    706000   299.9445      -1.3254196e+08  715.71104      1433.5776    
    707000   299.98725     -1.3254212e+08  712.53042      1433.5918    
    708000   300.04076     -1.3254239e+08  707.70775      1433.606     
    709000   299.96511     -1.3254209e+08  716.39183      1433.6203    
    710000   299.94535     -1.3254185e+08  716.77465      1433.6345    
    711000   300.02891     -1.3254215e+08  720.71454      1433.6488    
    712000   299.96685     -1.3254167e+08  709.7956       1433.663     
    713000   299.97209     -1.3254176e+08  707.04701      1433.6773    
    714000   300.01908     -1.3254191e+08  699.79623      1433.6915    
    715000   299.9756      -1.3254185e+08  707.11035      1433.7057    
    716000   300.0125      -1.3254211e+08  700.5373       1433.72      
    717000   300.00583     -1.3254194e+08  691.82351      1433.7342    
    718000   299.95366     -1.3254176e+08  674.69138      1433.7485    
    719000   299.99364     -1.3254191e+08  681.1882       1433.7627    
    720000   299.99269     -1.3254187e+08  685.51815      1433.777     
    721000   300.08179     -1.3254189e+08  697.31172      1433.7912    
    722000   299.96961     -1.3254164e+08  701.01216      1433.8054    
    723000   299.98914     -1.325417e+08   693.75096      1433.8197    
    724000   300.09614     -1.3254174e+08  677.9886       1433.8339    
    725000   299.98197     -1.3254121e+08  670.15262      1433.8482    
    726000   299.98946     -1.3254122e+08  670.60312      1433.8624    
    727000   300.01475     -1.3254144e+08  673.54055      1433.8766    
    728000   299.99932     -1.3254165e+08  666.9916       1433.8909    
    729000   299.95619     -1.325414e+08   660.83809      1433.9051    
    730000   299.97652     -1.3254147e+08  650.15768      1433.9194    
    731000   299.95706     -1.3254162e+08  651.41676      1433.9336    
    732000   299.90379     -1.3254132e+08  656.91232      1433.9479    
    733000   299.98696     -1.3254143e+08  657.18306      1433.9621    
    734000   300.01275     -1.3254129e+08  649.94332      1433.9763    
    735000   299.99917     -1.3254146e+08  645.21166      1433.9906    
    736000   299.97269     -1.3254134e+08  642.93721      1434.0048    
    737000   299.91649     -1.3254153e+08  638.52517      1434.0191    
    738000   299.89795     -1.3254141e+08  639.49915      1434.0333    
    739000   299.9331      -1.3254148e+08  647.66323      1434.0476    
    740000   299.92061     -1.3254145e+08  643.57209      1434.0618    
    741000   299.95099     -1.3254129e+08  632.97488      1434.076     
    742000   299.96518     -1.325411e+08   627.33802      1434.0903    
    743000   299.93302     -1.3254081e+08  616.28565      1434.1045    
    744000   299.99435     -1.3254087e+08  618.00442      1434.1188    
    745000   300.03387     -1.3254095e+08  617.3332       1434.133     
    746000   300.02474     -1.3254118e+08  612.7173       1434.1473    
    747000   299.9579      -1.3254107e+08  612.72277      1434.1615    
    748000   299.94467     -1.325411e+08   606.98418      1434.1757    
    749000   299.96553     -1.3254113e+08  602.57296      1434.19      
    750000   299.9676      -1.3254097e+08  609.62803      1434.2042    
    751000   299.98632     -1.3254117e+08  602.15222      1434.2185    
    752000   299.94656     -1.325411e+08   598.38793      1434.2327    
    753000   300.03422     -1.3254136e+08  595.94287      1434.2469    
    754000   299.98179     -1.3254074e+08  595.08501      1434.2612    
    755000   300.01719     -1.3254088e+08  596.24627      1434.2754    
    756000   300.00513     -1.3254059e+08  592.56322      1434.2897    
    757000   300.04808     -1.3254059e+08  588.97854      1434.3039    
    758000   300.00872     -1.3254052e+08  590.05994      1434.3182    
    759000   300.01781     -1.3254037e+08  588.97008      1434.3324    
    760000   300.01479     -1.3254009e+08  587.94029      1434.3466    
    761000   300.0957      -1.3254055e+08  587.46055      1434.3609    
    762000   299.99673     -1.325404e+08   579.69061      1434.3751    
    763000   300.00756     -1.3254057e+08  574.3068       1434.3894    
    764000   299.98649     -1.3254038e+08  567.58736      1434.4036    
    765000   300.00817     -1.3254051e+08  568.20779      1434.4179    
    766000   299.92973     -1.3254033e+08  567.62695      1434.4321    
    767000   299.99366     -1.3254066e+08  564.87711      1434.4463    
    768000   299.9747      -1.3254033e+08  566.99326      1434.4606    
    769000   299.99084     -1.3254026e+08  568.13941      1434.4748    
    770000   300.02943     -1.3254014e+08  559.32195      1434.4891    
    771000   300.03114     -1.3254005e+08  553.06343      1434.5033    
    772000   300.03265     -1.3254009e+08  550.66891      1434.5176    
    773000   299.98747     -1.3253997e+08  548.85678      1434.5318    
    774000   299.96191     -1.3254006e+08  550.22871      1434.546     
    775000   300.02226     -1.3254018e+08  551.40358      1434.5603    
    776000   299.99152     -1.3254023e+08  553.25149      1434.5745    
    777000   300.03798     -1.3254031e+08  535.06006      1434.5888    
    778000   299.9734      -1.3254029e+08  531.40821      1434.603     
    779000   299.95813     -1.3254028e+08  527.71261      1434.6172    
    780000   300.02534     -1.3254027e+08  525.2539       1434.6315    
    781000   300.01611     -1.3254042e+08  527.79696      1434.6457    
    782000   299.98918     -1.3254051e+08  521.63468      1434.66      
    783000   299.96258     -1.3254006e+08  515.6376       1434.6742    
    784000   299.89828     -1.3254008e+08  511.37694      1434.6885    
    785000   299.87569     -1.3253987e+08  517.99868      1434.7027    
    786000   299.98059     -1.3253985e+08  523.04025      1434.7169    
    787000   299.99777     -1.3253982e+08  520.49105      1434.7312    
    788000   300.02615     -1.3253972e+08  500.64682      1434.7454    
    789000   300.03729     -1.325397e+08   499.81246      1434.7597    
    790000   300.01884     -1.3254012e+08  501.18721      1434.7739    
    791000   300.05723     -1.3254005e+08  505.99587      1434.7882    
    792000   300.02812     -1.3253979e+08  499.62291      1434.8024    
    793000   300.00081     -1.3253957e+08  494.58466      1434.8166    
    794000   299.99284     -1.3253969e+08  478.65017      1434.8309    
    795000   300.04983     -1.3253956e+08  487.40281      1434.8451    
    796000   299.9676      -1.3253967e+08  482.24261      1434.8594    
    797000   300.00253     -1.3253983e+08  485.0595       1434.8736    
    798000   300.02918     -1.3253986e+08  482.16044      1434.8879    
    799000   299.92744     -1.3253957e+08  473.60024      1434.9021    
    800000   299.97552     -1.325396e+08   474.63402      1434.9163    
    801000   299.94117     -1.3253918e+08  470.06129      1434.9306    
    802000   299.96504     -1.325393e+08   464.62303      1434.9448    
    803000   299.97717     -1.3253954e+08  468.61999      1434.9591    
    804000   299.96822     -1.3253962e+08  468.94053      1434.9733    
    805000   299.95449     -1.3253979e+08  471.82695      1434.9876    
    806000   299.95815     -1.3253939e+08  463.16637      1435.0018    
    807000   300.01716     -1.3253936e+08  457.14084      1435.016     
    808000   299.97047     -1.3253964e+08  446.80145      1435.0303    
    809000   299.99381     -1.3253944e+08  451.11575      1435.0445    
    810000   300.03938     -1.3253957e+08  459.29536      1435.0588    
    811000   300.04136     -1.3253908e+08  458.59503      1435.073     
    812000   300.07094     -1.3253932e+08  434.45879      1435.0872    
    813000   300.00139     -1.3253891e+08  437.11377      1435.1015    
    814000   300.02486     -1.3253911e+08  431.73817      1435.1157    
    815000   299.98417     -1.3253908e+08  438.21652      1435.13      
    816000   300.0085      -1.3253897e+08  436.4442       1435.1442    
    817000   299.96007     -1.3253882e+08  435.31501      1435.1585    
    818000   300.00915     -1.3253919e+08  424.73051      1435.1727    
    819000   299.99204     -1.325392e+08   420.47582      1435.1869    
    820000   299.94979     -1.325391e+08   424.77597      1435.2012    
    821000   299.96569     -1.3253904e+08  419.40374      1435.2154    
    822000   300.01563     -1.3253894e+08  425.23232      1435.2297    
    823000   300.02837     -1.3253908e+08  408.61071      1435.2439    
    824000   299.98035     -1.3253886e+08  413.66389      1435.2582    
    825000   300.05703     -1.3253896e+08  413.30096      1435.2724    
    826000   300.03647     -1.3253876e+08  419.90224      1435.2866    
    827000   300.0347      -1.3253866e+08  405.97204      1435.3009    
    828000   299.97503     -1.325388e+08   398.84475      1435.3151    
    829000   300.05189     -1.3253903e+08  382.50963      1435.3294    
    830000   299.99558     -1.325388e+08   391.60577      1435.3436    
    831000   299.95557     -1.3253902e+08  393.37751      1435.3579    
    832000   299.96472     -1.3253891e+08  399.97263      1435.3721    
    833000   299.92431     -1.3253866e+08  391.0319       1435.3863    
    834000   299.92727     -1.3253873e+08  386.65017      1435.4006    
    835000   299.95217     -1.3253884e+08  379.70589      1435.4148    
    836000   299.91719     -1.3253871e+08  385.08047      1435.4291    
    837000   300.02116     -1.3253903e+08  382.59673      1435.4433    
    838000   300.01489     -1.325387e+08   379.67232      1435.4575    
    839000   300.02151     -1.3253872e+08  377.76407      1435.4718    
    840000   300.02283     -1.3253864e+08  370.93268      1435.486     
    841000   299.93355     -1.3253839e+08  363.75397      1435.5003    
    842000   300.00576     -1.325386e+08   359.00422      1435.5145    
    843000   300.01819     -1.3253846e+08  353.87904      1435.5288    
    844000   300.01806     -1.3253843e+08  353.01629      1435.543     
    845000   299.97073     -1.325383e+08   355.45536      1435.5572    
    846000   299.96092     -1.3253823e+08  361.61568      1435.5715    
    847000   299.93631     -1.325385e+08   358.9138       1435.5857    
    848000   300.05262     -1.3253864e+08  351.89036      1435.6       
    849000   300.02024     -1.3253837e+08  346.86017      1435.6142    
    850000   299.99363     -1.3253823e+08  340.83365      1435.6285    
    851000   300.02286     -1.3253819e+08  346.10914      1435.6427    
    852000   300.01452     -1.3253802e+08  336.76361      1435.6569    
    853000   300.0262      -1.3253796e+08  329.85501      1435.6712    
    854000   300.01904     -1.325381e+08   322.81806      1435.6854    
    855000   299.93436     -1.3253788e+08  332.4941       1435.6997    
    856000   299.95186     -1.3253792e+08  329.52525      1435.7139    
    857000   300.04074     -1.3253819e+08  325.62111      1435.7282    
    858000   299.99854     -1.3253831e+08  321.43153      1435.7424    
    859000   299.95628     -1.3253809e+08  322.57289      1435.7566    
    860000   300.02922     -1.3253817e+08  323.17462      1435.7709    
    861000   299.98819     -1.3253805e+08  317.08251      1435.7851    
    862000   299.99897     -1.3253785e+08  317.79018      1435.7994    
    863000   299.93771     -1.3253787e+08  302.59195      1435.8136    
    864000   300.01252     -1.3253804e+08  300.46674      1435.8278    
    865000   299.97361     -1.3253763e+08  299.04003      1435.8421    
    866000   299.98663     -1.3253754e+08  309.50574      1435.8563    
    867000   299.99884     -1.3253755e+08  308.27798      1435.8706    
    868000   299.99257     -1.3253752e+08  301.97106      1435.8848    
    869000   300.04967     -1.3253747e+08  297.86347      1435.8991    
    870000   300.03512     -1.3253751e+08  281.80309      1435.9133    
    871000   299.98636     -1.3253746e+08  275.59135      1435.9275    
    872000   299.98428     -1.3253744e+08  285.64327      1435.9418    
    873000   299.99235     -1.3253756e+08  291.25451      1435.956     
    874000   299.96866     -1.3253745e+08  283.7539       1435.9703    
    875000   299.97794     -1.3253747e+08  277.35766      1435.9845    
    876000   300.02816     -1.3253753e+08  263.63768      1435.9988    
    877000   300.00583     -1.3253738e+08  263.46901      1436.013     
    878000   300.04363     -1.3253762e+08  264.6593       1436.0272    
    879000   299.97978     -1.3253743e+08  273.72784      1436.0415    
    880000   300.0182      -1.325377e+08   271.63401      1436.0557    
    881000   299.96146     -1.3253777e+08  268.64873      1436.07      
    882000   299.95369     -1.3253768e+08  252.5736       1436.0842    
    883000   299.88764     -1.3253704e+08  253.34783      1436.0985    
    884000   300.01938     -1.3253732e+08  250.6172       1436.1127    
    885000   299.98447     -1.3253728e+08  259.98197      1436.1269    
    886000   300.06491     -1.325376e+08   253.19735      1436.1412    
    887000   299.97849     -1.3253692e+08  248.74193      1436.1554    
    888000   300.00746     -1.3253697e+08  252.76573      1436.1697    
    889000   299.98048     -1.3253707e+08  244.62591      1436.1839    
    890000   299.9544      -1.3253731e+08  230.41944      1436.1982    
    891000   299.95227     -1.3253734e+08  227.38604      1436.2124    
    892000   299.98925     -1.3253728e+08  232.50858      1436.2266    
    893000   300.02225     -1.3253732e+08  245.36277      1436.2409    
    894000   299.99786     -1.3253709e+08  226.5303       1436.2551    
    895000   299.99559     -1.3253688e+08  229.23265      1436.2694    
    896000   300.02305     -1.3253709e+08  220.60028      1436.2836    
    897000   300.02726     -1.3253706e+08  227.57366      1436.2978    
    898000   299.99767     -1.3253682e+08  222.54321      1436.3121    
    899000   300.08064     -1.3253669e+08  219.7107       1436.3263    
    900000   300.04999     -1.3253653e+08  212.16928      1436.3406    
    901000   300.00768     -1.3253636e+08  208.84447      1436.3548    
    902000   299.99791     -1.3253618e+08  213.28323      1436.3691    
    903000   300.01891     -1.3253669e+08  209.81609      1436.3833    
    904000   299.99857     -1.325367e+08   204.46055      1436.3975    
    905000   300.02294     -1.3253666e+08  192.48129      1436.4118    
    906000   299.99035     -1.3253638e+08  192.8996       1436.426     
    907000   300.07295     -1.3253663e+08  185.85448      1436.4403    
    908000   300.06982     -1.3253637e+08  193.11286      1436.4545    
    909000   300.08872     -1.3253626e+08  192.71233      1436.4688    
    910000   300.03252     -1.3253611e+08  190.86578      1436.483     
    911000   300.04696     -1.3253659e+08  184.00448      1436.4972    
    912000   300.02131     -1.3253653e+08  176.9887       1436.5115    
    913000   300.00484     -1.3253633e+08  176.61082      1436.5257    
    914000   300.03365     -1.3253603e+08  179.66118      1436.54      
    915000   300.10639     -1.3253612e+08  182.06068      1436.5542    
    916000   300.06833     -1.3253592e+08  176.02386      1436.5685    
    917000   300.07882     -1.3253591e+08  169.97254      1436.5827    
    918000   300.0153      -1.3253609e+08  170.74824      1436.5969    
    919000   299.96006     -1.3253595e+08  172.8212       1436.6112    
    920000   300.0033      -1.325361e+08   171.15634      1436.6254    
    921000   299.95236     -1.3253597e+08  166.27385      1436.6397    
    922000   300.02929     -1.3253632e+08  163.49675      1436.6539    
    923000   299.99517     -1.3253596e+08  155.73247      1436.6681    
    924000   300.00902     -1.3253593e+08  153.34393      1436.6824    
    925000   299.99999     -1.3253606e+08  150.98511      1436.6966    
    926000   299.9497      -1.3253589e+08  151.92738      1436.7109    
    927000   299.99495     -1.3253586e+08  142.89767      1436.7251    
    928000   300.06246     -1.3253617e+08  143.24709      1436.7394    
    929000   299.98472     -1.3253566e+08  138.24653      1436.7536    
    930000   300.03894     -1.3253586e+08  133.89331      1436.7678    
    931000   300.00969     -1.325357e+08   130.43143      1436.7821    
    932000   299.99796     -1.3253567e+08  133.48013      1436.7963    
    933000   300.04949     -1.3253557e+08  123.2803       1436.8106    
    934000   300.06465     -1.3253563e+08  129.04962      1436.8248    
    935000   299.99509     -1.3253532e+08  123.90729      1436.8391    
    936000   300.0134      -1.325357e+08   116.8999       1436.8533    
    937000   300.03566     -1.3253557e+08  111.67181      1436.8675    
    938000   299.96324     -1.3253555e+08  114.41656      1436.8818    
    939000   299.98039     -1.3253572e+08  113.54362      1436.896     
    940000   300.00201     -1.3253553e+08  113.43416      1436.9103    
    941000   299.99579     -1.3253528e+08  112.9131       1436.9245    
    942000   299.97128     -1.3253549e+08  105.46401      1436.9388    
    943000   299.99301     -1.325356e+08   103.09449      1436.953     
    944000   299.99744     -1.3253529e+08  92.681154      1436.9672    
    945000   299.99781     -1.3253515e+08  88.323999      1436.9815    
    946000   300.06092     -1.3253529e+08  87.680656      1436.9957    
    947000   299.99011     -1.3253489e+08  91.045665      1437.01      
    948000   300.06046     -1.3253519e+08  92.149635      1437.0242    
    949000   299.98736     -1.325349e+08   90.635182      1437.0384    
    950000   300.05025     -1.3253515e+08  85.226407      1437.0527    
    951000   299.99478     -1.3253505e+08  78.243303      1437.0669    
    952000   299.98705     -1.3253524e+08  81.405353      1437.0812    
    953000   300.00794     -1.3253543e+08  68.385791      1437.0954    
    954000   300.08163     -1.3253559e+08  74.280804      1437.1097    
    955000   299.99155     -1.3253491e+08  69.82728       1437.1239    
    956000   299.99854     -1.3253511e+08  69.617267      1437.1381    
    957000   300.09213     -1.325353e+08   67.420079      1437.1524    
    958000   299.98516     -1.3253471e+08  71.091403      1437.1666    
    959000   300.04394     -1.3253477e+08  58.188508      1437.1809    
    960000   299.95824     -1.3253456e+08  65.394743      1437.1951    
    961000   299.9876      -1.3253458e+08  57.446745      1437.2094    
    962000   299.96735     -1.3253472e+08  53.709922      1437.2236    
    963000   299.99241     -1.3253494e+08  49.315787      1437.2378    
    964000   299.94304     -1.3253481e+08  45.906375      1437.2521    
    965000   299.99648     -1.3253485e+08  51.112624      1437.2663    
    966000   299.98039     -1.32535e+08    46.287568      1437.2806    
    967000   299.96108     -1.3253485e+08  45.876352      1437.2948    
    968000   300.04501     -1.3253493e+08  34.174247      1437.3091    
    969000   299.98553     -1.3253464e+08  29.979725      1437.3233    
    970000   299.99348     -1.3253478e+08  27.954549      1437.3375    
    971000   299.97619     -1.3253429e+08  28.975403      1437.3518    
    972000   299.98125     -1.325344e+08   22.117031      1437.366     
    973000   299.97848     -1.3253453e+08  25.828671      1437.3803    
    974000   299.98851     -1.3253424e+08  19.461295      1437.3945    
    975000   299.97403     -1.3253405e+08  20.020367      1437.4087    
    976000   300.02082     -1.3253439e+08  10.971873      1437.423     
    977000   300.01617     -1.3253419e+08  18.648206      1437.4372    
    978000   300.01933     -1.3253405e+08  20.313565      1437.4515    
    979000   300.01448     -1.3253458e+08  17.203655      1437.4657    
    980000   299.97907     -1.3253443e+08  15.528656      1437.48      
    981000   300.0286      -1.3253453e+08  6.4109942      1437.4942    
    982000   299.96531     -1.3253414e+08  7.0516369      1437.5084    
    983000   299.96493     -1.3253404e+08  6.9132575      1437.5227    
    984000   300.01381     -1.3253403e+08  0.076371602    1437.5369    
    985000   300.03336     -1.3253422e+08 -2.7362863      1437.5512    
    986000   299.97612     -1.3253394e+08 -0.11046464     1437.5654    
    987000   299.9607      -1.3253411e+08 -9.4954057      1437.5797    
    988000   299.98262     -1.3253385e+08 -16.056181      1437.5939    
    989000   299.99184     -1.3253391e+08 -18.538904      1437.6081    
    990000   300.04029     -1.3253376e+08 -22.274143      1437.6224    
    991000   300.0257      -1.3253385e+08 -15.383527      1437.6366    
    992000   300.05397     -1.3253395e+08 -28.942504      1437.6509    
    993000   300.04189     -1.3253383e+08 -26.059504      1437.6651    
    994000   300.00221     -1.3253373e+08 -30.26836       1437.6794    
    995000   300.04027     -1.325337e+08  -24.292052      1437.6936    
    996000   300.03616     -1.3253412e+08 -33.742639      1437.7078    
    997000   299.93968     -1.3253385e+08 -33.943649      1437.7221    
    998000   299.93311     -1.3253355e+08 -38.869213      1437.7363    
    999000   299.95879     -1.3253372e+08 -48.772448      1437.7506    
   1000000   299.97482     -1.3253334e+08 -43.851858      1437.7648    
   1001000   299.97161     -1.325336e+08  -41.456134      1437.7791    
   1002000   300.04846     -1.3253377e+08 -44.564874      1437.7933    
   1003000   299.95463     -1.3253366e+08 -42.005263      1437.8075    
   1004000   299.94204     -1.3253344e+08 -49.039105      1437.8218    
   1005000   300.0038      -1.3253363e+08 -53.04924       1437.836     
   1006000   300.00493     -1.3253333e+08 -59.667736      1437.8503    
   1007000   299.99402     -1.3253339e+08 -64.732629      1437.8645    
   1008000   299.97396     -1.3253374e+08 -68.933877      1437.8787    
   1009000   299.9583      -1.3253354e+08 -71.961473      1437.893     
   1010000   299.94931     -1.3253347e+08 -77.224806      1437.9072    
   1011000   299.97339     -1.3253358e+08 -83.70228       1437.9215    
   1012000   299.97902     -1.3253321e+08 -82.29091       1437.9357    
   1013000   300.0261      -1.3253341e+08 -81.022743      1437.95      
   1014000   299.9348      -1.3253336e+08 -74.39394       1437.9642    
   1015000   299.94428     -1.3253331e+08 -78.581536      1437.9784    
   1016000   300.01912     -1.3253292e+08 -84.735403      1437.9927    
   1017000   299.9802      -1.3253258e+08 -94.753256      1438.0069    
   1018000   300.02906     -1.3253273e+08 -94.063273      1438.0212    
   1019000   300.0319      -1.3253302e+08 -87.618219      1438.0354    
   1020000   300.01706     -1.3253278e+08 -89.856545      1438.0497    
   1021000   300.03958     -1.3253278e+08 -94.681774      1438.0639    
   1022000   300.02521     -1.3253291e+08 -105.40892      1438.0781    
   1023000   299.96299     -1.3253285e+08 -104.80702      1438.0924    
   1024000   299.92115     -1.3253273e+08 -115.97493      1438.1066    
   1025000   299.98478     -1.3253275e+08 -112.04402      1438.1209    
   1026000   299.99568     -1.3253272e+08 -119.32601      1438.1351    
   1027000   300.02079     -1.3253298e+08 -115.42658      1438.1494    
   1028000   300.01005     -1.3253263e+08 -114.19018      1438.1636    
   1029000   300.01681     -1.3253253e+08 -112.30597      1438.1778    
   1030000   299.99056     -1.3253259e+08 -122.7356       1438.1921    
   1031000   299.99013     -1.325324e+08  -125.13094      1438.2063    
   1032000   300.00738     -1.325322e+08  -133.91778      1438.2206    
   1033000   300.07724     -1.3253234e+08 -131.15346      1438.2348    
   1034000   300.02719     -1.3253224e+08 -125.09083      1438.249     
   1035000   300.01094     -1.325324e+08  -125.09882      1438.2633    
   1036000   299.97767     -1.3253246e+08 -130.17882      1438.2775    
[...]
   4032000   299.95278     -1.3230644e+08 -6306.3952      1480.9476    
   4033000   299.9821      -1.3230669e+08 -6320.5753      1480.9618    
   4034000   300.01628     -1.323068e+08  -6323.5402      1480.9761    
   4035000   299.96973     -1.3230626e+08 -6309.6173      1480.9903    
   4036000   300.06983     -1.3230655e+08 -6304.9933      1481.0046    
   4037000   300.04474     -1.3230616e+08 -6307.0446      1481.0188    
   4038000   300.04922     -1.3230607e+08 -6318.4835      1481.0331    
   4039000   300.04374     -1.323059e+08  -6315.4188      1481.0473    
   4040000   300.06029     -1.3230612e+08 -6325.1346      1481.0615    
   4041000   300.00602     -1.3230578e+08 -6327.7508      1481.0758    
   4042000   299.98425     -1.3230589e+08 -6328.0944      1481.09      
   4043000   299.95235     -1.3230584e+08 -6323.9139      1481.1043    
   4044000   299.98286     -1.3230596e+08 -6324.4633      1481.1185    
   4045000   299.90082     -1.3230558e+08 -6327.8678      1481.1328    
   4046000   299.94309     -1.3230542e+08 -6325.0596      1481.147     
   4047000   299.97165     -1.3230513e+08 -6327.2165      1481.1612    
   4048000   299.9849      -1.3230526e+08 -6329.0125      1481.1755    
   4049000   299.94736     -1.3230457e+08 -6336.3854      1481.1897    
   4050000   299.94378     -1.3230485e+08 -6339.3712      1481.204     
   4051000   299.95304     -1.3230472e+08 -6346.8485      1481.2182    
   4052000   300.01688     -1.3230449e+08 -6345.1656      1481.2324    
   4053000   299.98107     -1.3230471e+08 -6344.6253      1481.2467    
   4054000   299.97193     -1.3230476e+08 -6342.0697      1481.2609    
   4055000   299.9662      -1.3230432e+08 -6339.5125      1481.2752    
   4056000   299.95057     -1.323044e+08  -6342.0436      1481.2894    
   4057000   299.96458     -1.3230415e+08 -6342.2476      1481.3037    
   4058000   299.96096     -1.3230395e+08 -6346.7511      1481.3179    
   4059000   300.0017      -1.3230409e+08 -6354.1877      1481.3321    
   4060000   299.96605     -1.3230382e+08 -6354.8722      1481.3464    
   4061000   299.94105     -1.3230353e+08 -6354.6205      1481.3606    
   4062000   299.95728     -1.3230372e+08 -6352.007       1481.3749    
   4063000   299.97894     -1.323036e+08  -6362.551       1481.3891    
   4064000   299.90339     -1.3230322e+08 -6367.4576      1481.4034    
   4065000   299.98944     -1.3230316e+08 -6368.0149      1481.4176    
   4066000   300.01254     -1.3230287e+08 -6367.6478      1481.4318    
   4067000   299.99263     -1.3230274e+08 -6364.593       1481.4461    
   4068000   299.92682     -1.3230238e+08 -6363.7415      1481.4603    
   4069000   299.99603     -1.3230235e+08 -6365.7252      1481.4746    
   4070000   300.02423     -1.3230257e+08 -6368.5758      1481.4888    
   4071000   299.98444     -1.3230239e+08 -6374.2557      1481.5031    
   4072000   300.00428     -1.3230247e+08 -6377.6214      1481.5173    
   4073000   299.8962      -1.3230222e+08 -6369.6077      1481.5315    
   4074000   299.94146     -1.3230209e+08 -6372.9653      1481.5458    
   4075000   299.98833     -1.3230233e+08 -6374.5602      1481.56      
   4076000   300.04296     -1.3230227e+08 -6370.7274      1481.5743    
   4077000   299.97703     -1.323018e+08  -6372.9909      1481.5885    
   4078000   300.05038     -1.3230169e+08 -6371.5938      1481.6027    
   4079000   300.01723     -1.3230162e+08 -6384.5442      1481.617     
   4080000   300.00294     -1.3230149e+08 -6387.5056      1481.6312    
   4081000   300.01406     -1.3230154e+08 -6395.0096      1481.6455    
   4082000   299.97043     -1.3230146e+08 -6393.1448      1481.6597    
   4083000   299.98641     -1.3230133e+08 -6386.3144      1481.674     
   4084000   300.00279     -1.3230135e+08 -6384.3451      1481.6882    
   4085000   299.96104     -1.3230131e+08 -6384.3468      1481.7024    
   4086000   299.94542     -1.3230129e+08 -6386.7392      1481.7167    
   4087000   299.94776     -1.3230102e+08 -6390.729       1481.7309    
   4088000   299.9533      -1.3230088e+08 -6391.1002      1481.7452    
   4089000   299.99014     -1.3230057e+08 -6402.0766      1481.7594    
   4090000   299.928       -1.3230023e+08 -6395.9111      1481.7737    
   4091000   299.98915     -1.3230044e+08 -6397.5744      1481.7879    
   4092000   300.04523     -1.3230038e+08 -6394.8952      1481.8021    
   4093000   299.9741      -1.323003e+08  -6397.4198      1481.8164    
   4094000   299.97619     -1.3229993e+08 -6403.3777      1481.8306    
   4095000   299.97579     -1.3229955e+08 -6406.2941      1481.8449    
   4096000   300.00982     -1.3229945e+08 -6411.2         1481.8591    
   4097000   299.98953     -1.3229978e+08 -6415.4252      1481.8734    
   4098000   299.95541     -1.3229966e+08 -6409.435       1481.8876    
   4099000   299.95519     -1.3229968e+08 -6412.6158      1481.9018    
   4100000   299.93973     -1.3229948e+08 -6413.2625      1481.9161    
   4101000   299.9377      -1.3229942e+08 -6422.5064      1481.9303    
   4102000   299.9042      -1.3229935e+08 -6418.6288      1481.9446    
   4103000   300.0064      -1.3229917e+08 -6420.1875      1481.9588    
   4104000   299.96402     -1.3229885e+08 -6415.5423      1481.973     
   4105000   300.02242     -1.3229888e+08 -6416.0222      1481.9873    
   4106000   299.95568     -1.3229874e+08 -6417.7828      1482.0015    
   4107000   299.98706     -1.3229873e+08 -6424.6464      1482.0158    
   4108000   299.92286     -1.3229804e+08 -6427.6857      1482.03      
   4109000   300.04812     -1.3229834e+08 -6435.683       1482.0443    
   4110000   300.07307     -1.322981e+08  -6434.7719      1482.0585    
   4111000   299.96618     -1.3229786e+08 -6427.413       1482.0727    
   4112000   299.94908     -1.3229756e+08 -6431.2097      1482.087     
   4113000   300.00134     -1.3229783e+08 -6436.7992      1482.1012    
   4114000   300.05477     -1.3229775e+08 -6446.4968      1482.1155    
   4115000   300.08477     -1.3229768e+08 -6439.8805      1482.1297    
   4116000   300.04861     -1.3229741e+08 -6441.3063      1482.144     
   4117000   299.97902     -1.3229721e+08 -6441.5456      1482.1582    
   4118000   299.97136     -1.3229674e+08 -6440.3059      1482.1724    
   4119000   300.01129     -1.3229694e+08 -6447.4697      1482.1867    
   4120000   300.06967     -1.3229691e+08 -6455.719       1482.2009    
   4121000   300.04002     -1.3229645e+08 -6449.5049      1482.2152    
   4122000   299.99878     -1.322963e+08  -6450.1604      1482.2294    
   4123000   299.98003     -1.3229637e+08 -6446.5713      1482.2437    
   4124000   300.00212     -1.3229624e+08 -6455.6878      1482.2579    
   4125000   300.05558     -1.3229641e+08 -6466.6937      1482.2721    
   4126000   299.99566     -1.3229622e+08 -6461.517       1482.2864    
   4127000   299.97788     -1.3229626e+08 -6452.6264      1482.3006    
   4128000   299.96622     -1.3229614e+08 -6452.5672      1482.3149    
   4129000   300.05895     -1.3229608e+08 -6453.7249      1482.3291    
   4130000   300.00534     -1.3229576e+08 -6465.2852      1482.3434    
   4131000   299.99061     -1.322952e+08  -6464.2273      1482.3576    
   4132000   299.98109     -1.3229513e+08 -6465.8971      1482.3718    
   4133000   299.98353     -1.3229536e+08 -6460.2208      1482.3861    
   4134000   300.05385     -1.3229522e+08 -6458.3123      1482.4003    
   4135000   300.05409     -1.3229523e+08 -6463.0702      1482.4146    
   4136000   300.06653     -1.3229562e+08 -6475.0391      1482.4288    
   4137000   299.97882     -1.3229514e+08 -6473.409       1482.443     
   4138000   299.97145     -1.3229499e+08 -6474.1297      1482.4573    
   4139000   300.01346     -1.3229484e+08 -6479.5735      1482.4715    
   4140000   299.99541     -1.3229449e+08 -6478.8815      1482.4858    
   4141000   300.02668     -1.3229456e+08 -6482.8216      1482.5       
   4142000   300.00448     -1.3229421e+08 -6479.6425      1482.5143    
   4143000   300.01343     -1.322941e+08  -6473.9662      1482.5285    
   4144000   300.00015     -1.3229424e+08 -6482.8033      1482.5427    
   4145000   300.00651     -1.3229414e+08 -6483.1223      1482.557     
   4146000   300.02631     -1.3229411e+08 -6480.9222      1482.5712    
   4147000   299.99949     -1.3229377e+08 -6483.7712      1482.5855    
   4148000   300.00982     -1.3229357e+08 -6491.6209      1482.5997    
   4149000   300.09851     -1.3229342e+08 -6488.8479      1482.614     
   4150000   299.9928      -1.3229324e+08 -6487.1549      1482.6282    
   4151000   299.9887      -1.3229367e+08 -6484.4507      1482.6424    
   4152000   300.00965     -1.3229353e+08 -6486.1947      1482.6567    
   4153000   300.00149     -1.3229323e+08 -6487.4437      1482.6709    
   4154000   300.06672     -1.3229332e+08 -6493.0968      1482.6852    
   4155000   300.02081     -1.3229318e+08 -6496.5308      1482.6994    
   4156000   300.01846     -1.3229293e+08 -6493.0011      1482.7137    
   4157000   299.9833      -1.3229293e+08 -6501.6288      1482.7279    
   4158000   299.95014     -1.3229246e+08 -6503.3966      1482.7421    
   4159000   300.00901     -1.3229256e+08 -6506.4553      1482.7564    
   4160000   300.02471     -1.3229259e+08 -6499.6655      1482.7706    
   4161000   300.0518      -1.3229242e+08 -6497.5064      1482.7849    
   4162000   299.93148     -1.3229203e+08 -6503.8382      1482.7991    
   4163000   299.98208     -1.3229217e+08 -6512.677       1482.8133    
   4164000   300.00492     -1.3229217e+08 -6508.6546      1482.8276    
   4165000   299.99352     -1.3229223e+08 -6506.3855      1482.8418    
   4166000   299.88903     -1.3229185e+08 -6505.5783      1482.8561    
   4167000   299.94209     -1.3229189e+08 -6515.0287      1482.8703    
   4168000   299.9479      -1.322917e+08  -6521.8459      1482.8846    
   4169000   299.97549     -1.3229152e+08 -6522.005       1482.8988    
   4170000   299.96865     -1.3229114e+08 -6510.8344      1482.913     
   4171000   299.99546     -1.3229107e+08 -6511.2568      1482.9273    
   4172000   300.03993     -1.3229099e+08 -6518.8148      1482.9415    
   4173000   299.98463     -1.3229087e+08 -6523.6523      1482.9558    
   4174000   300.00944     -1.3229081e+08 -6529.3003      1482.97      
   4175000   300.0478      -1.3229094e+08 -6526.8492      1482.9843    
   4176000   300.01101     -1.3229067e+08 -6516.883       1482.9985    
   4177000   299.98819     -1.3229048e+08 -6518.88        1483.0127    
   4178000   299.97909     -1.3229033e+08 -6533.2869      1483.027     
   4179000   300.02208     -1.3229029e+08 -6536.8759      1483.0412    
   4180000   299.96699     -1.322902e+08  -6539.1341      1483.0555    
   4181000   300.02887     -1.3229039e+08 -6537.6045      1483.0697    
   4182000   300.0009      -1.3229022e+08 -6535.3712      1483.084     
   4183000   299.90334     -1.3228964e+08 -6524.6911      1483.0982    
   4184000   299.99104     -1.322898e+08  -6537.4183      1483.1124    
   4185000   300.03894     -1.322896e+08  -6543.7474      1483.1267    
   4186000   300.01226     -1.3228913e+08 -6550.3398      1483.1409    
   4187000   300.0448      -1.3228937e+08 -6546.9752      1483.1552    
   4188000   300.04583     -1.3228916e+08 -6548.2875      1483.1694    
   4189000   300.03003     -1.3228911e+08 -6539.3906      1483.1836    
   4190000   300.0097      -1.3228882e+08 -6550.8985      1483.1979    
   4191000   300.01849     -1.3228872e+08 -6552.5126      1483.2121    
   4192000   300.05881     -1.3228872e+08 -6568.7632      1483.2264    
   4193000   300.03221     -1.3228844e+08 -6553.6044      1483.2406    
   4194000   300.01418     -1.322883e+08  -6547.4476      1483.2549    
   4195000   300.08778     -1.3228895e+08 -6535.2587      1483.2691    
   4196000   300.07697     -1.3228923e+08 -6538.8338      1483.2833    
   4197000   300.06337     -1.3228938e+08 -6535.2756      1483.2976    
   4198000   300.12185     -1.3229e+08    -6532.2959      1483.3118    
   4199000   300.21372     -1.3229105e+08 -6514.2034      1483.3261    
   4200000   300.15597     -1.3229154e+08 -6508.9832      1483.3403    
   4201000   300.25574     -1.3229253e+08 -6486.8433      1483.3546    
   4202000   300.28427     -1.3229342e+08 -6474.5973      1483.3688    
   4203000   300.36337     -1.3229452e+08 -6463.6153      1483.383     
   4204000   300.42179     -1.3229601e+08 -6446.76        1483.3973    
   4205000   300.35231     -1.3229716e+08 -6438.2732      1483.4115    
   4206000   300.27452     -1.3229831e+08 -6432.3894      1483.4258    
   4207000   300.29316     -1.3229939e+08 -6431.229       1483.44      
   4208000   300.26236     -1.3230032e+08 -6419.0894      1483.4543    
   4209000   300.30604     -1.3230122e+08 -6413.5832      1483.4685    
   4210000   300.20823     -1.3230211e+08 -6402.0293      1483.4827    
   4211000   300.17453     -1.3230292e+08 -6403.1976      1483.497     
   4212000   300.26179     -1.3230403e+08 -6393.1139      1483.5112    
   4213000   300.25293     -1.323051e+08  -6374.5127      1483.5255    
   4214000   300.21605     -1.3230604e+08 -6366.5178      1483.5397    
   4215000   300.18858     -1.3230673e+08 -6358.784       1483.5539    
   4216000   300.13213     -1.323074e+08  -6359.1398      1483.5682    
   4217000   300.14075     -1.3230794e+08 -6365.1747      1483.5824    
   4218000   300.18046     -1.3230813e+08 -6363.7225      1483.5967    
   4219000   300.11264     -1.3230841e+08 -6371.7183      1483.6109    
   4220000   300.14972     -1.3230892e+08 -6364.3526      1483.6252    
   4221000   300.09983     -1.3230902e+08 -6355.2609      1483.6394    
   4222000   300.21052     -1.323099e+08  -6348.2249      1483.6536    
   4223000   300.22339     -1.3231068e+08 -6334.9187      1483.6679    
   4224000   300.16956     -1.3231123e+08 -6327.1214      1483.6821    
   4225000   300.26363     -1.323122e+08  -6318.0754      1483.6964    
   4226000   300.21858     -1.3231265e+08 -6309.1417      1483.7106    
   4227000   300.207       -1.3231383e+08 -6299.6974      1483.7249    
   4228000   300.19212     -1.3231401e+08 -6304.4071      1483.7391    
   4229000   300.17019     -1.3231448e+08 -6304.8214      1483.7533    
   4230000   300.04144     -1.3231405e+08 -6307.7398      1483.7676    
   4231000   300.00046     -1.3231461e+08 -6313.8358      1483.7818    
   4232000   299.95977     -1.3231451e+08 -6319.5912      1483.7961    
   4233000   299.99302     -1.3231452e+08 -6328.6358      1483.8103    
   4234000   300.00705     -1.3231439e+08 -6328.8863      1483.8246    
   4235000   300.03587     -1.3231409e+08 -6313.3846      1483.8388    
   4236000   300.002       -1.3231378e+08 -6315.138       1483.853     
   4237000   300.11364     -1.3231406e+08 -6325.0773      1483.8673    
   4238000   300.00405     -1.3231357e+08 -6326.0064      1483.8815    
   4239000   300.00955     -1.3231384e+08 -6330.2988      1483.8958    
   4240000   300.02103     -1.3231377e+08 -6328.6167      1483.91      
   4241000   299.95543     -1.3231346e+08 -6323.1881      1483.9243    
   4242000   300.01968     -1.3231354e+08 -6328.5909      1483.9385    
   4243000   299.9706      -1.3231342e+08 -6336.4303      1483.9527    
   4244000   299.9546      -1.3231317e+08 -6340.3884      1483.967     
   4245000   299.95434     -1.323132e+08  -6344.7121      1483.9812    
   4246000   300.01659     -1.3231346e+08 -6336.159       1483.9955    
   4247000   299.96138     -1.32313e+08   -6332.8913      1484.0097    
   4248000   300.01911     -1.3231278e+08 -6332.576       1484.0239    
   4249000   299.98327     -1.323127e+08  -6352.0097      1484.0382    
   4250000   299.97745     -1.3231253e+08 -6344.5497      1484.0524    
   4251000   299.97361     -1.3231251e+08 -6337.1167      1484.0667    
   4252000   300.00672     -1.3231232e+08 -6336.802       1484.0809    
   4253000   299.97259     -1.3231231e+08 -6352.7111      1484.0952    
   4254000   299.96483     -1.323121e+08  -6352.9624      1484.1094    
   4255000   299.96319     -1.3231247e+08 -6358.6765      1484.1236    
   4256000   299.9234      -1.3231224e+08 -6353.9986      1484.1379    
   4257000   299.97604     -1.3231202e+08 -6367.302       1484.1521    
   4258000   299.96071     -1.3231213e+08 -6366.8892      1484.1664    
   4259000   299.92955     -1.3231168e+08 -6374.5085      1484.1806    
   4260000   300.00156     -1.3231185e+08 -6359.759       1484.1949    
   4261000   299.98342     -1.3231135e+08 -6359.1836      1484.2091    
   4262000   300.03123     -1.3231159e+08 -6349.9542      1484.2233    
   4263000   299.96162     -1.3231123e+08 -6368.0155      1484.2376    
   4264000   299.99132     -1.3231162e+08 -6377.3333      1484.2518    
   4265000   299.94044     -1.3231116e+08 -6382.3066      1484.2661    
   4266000   299.9794      -1.3231116e+08 -6369.3124      1484.2803    
   4267000   299.97139     -1.3231076e+08 -6361.8833      1484.2946    
   4268000   300.02499     -1.3231096e+08 -6361.5503      1484.3088    
   4269000   300.05175     -1.3231088e+08 -6378.6857      1484.323     
   4270000   300.06234     -1.323107e+08  -6389.2322      1484.3373    
   4271000   300.03057     -1.3231026e+08 -6379.9049      1484.3515    
   4272000   300.03611     -1.3231027e+08 -6375.914       1484.3658    
   4273000   299.99651     -1.3231019e+08 -6374.8691      1484.38      
   4274000   300.0074      -1.3230969e+08 -6380.289       1484.3942    
   4275000   300.06121     -1.3230973e+08 -6387.6318      1484.4085    
   4276000   300.07425     -1.3230964e+08 -6385.6622      1484.4227    
   4277000   300.07197     -1.3230955e+08 -6389.704       1484.437     
   4278000   299.96211     -1.3230928e+08 -6393.6918      1484.4512    
   4279000   299.97554     -1.3230925e+08 -6401.9052      1484.4655    
   4280000   299.97652     -1.3230902e+08 -6406.9214      1484.4797    
   4281000   300.02326     -1.3230912e+08 -6392.2341      1484.4939    
   4282000   300.0375      -1.3230911e+08 -6394.9254      1484.5082    
   4283000   299.96043     -1.3230877e+08 -6395.6649      1484.5224    
   4284000   299.98814     -1.3230867e+08 -6412.8418      1484.5367    
   4285000   300.0003      -1.3230893e+08 -6404.8017      1484.5509    
   4286000   299.97665     -1.3230854e+08 -6396.0746      1484.5652    
   4287000   300.03358     -1.3230861e+08 -6394.1918      1484.5794    
   4288000   299.96606     -1.3230849e+08 -6407.8405      1484.5936    
   4289000   299.98343     -1.3230817e+08 -6413.3814      1484.6079    
   4290000   299.95315     -1.323085e+08  -6415.2548      1484.6221    
   4291000   299.93352     -1.3230824e+08 -6404.2003      1484.6364    
   4292000   300.01808     -1.3230821e+08 -6406.7145      1484.6506    
   4293000   299.99778     -1.3230786e+08 -6413.2437      1484.6649    
   4294000   300.00269     -1.3230788e+08 -6418.4735      1484.6791    
   4295000   299.93621     -1.3230737e+08 -6424.5118      1484.6933    
   4296000   299.97109     -1.3230731e+08 -6422.795       1484.7076    
   4297000   300.05207     -1.3230737e+08 -6422.8561      1484.7218    
   4298000   300.04048     -1.323074e+08  -6422.1078      1484.7361    
   4299000   300.01131     -1.3230747e+08 -6429.305       1484.7503    
   4300000   299.9611      -1.3230697e+08 -6426.486       1484.7645    
   4301000   299.95178     -1.3230691e+08 -6422.0432      1484.7788    
   4302000   299.90177     -1.3230691e+08 -6429.6054      1484.793     
   4303000   299.98843     -1.3230706e+08 -6431.2245      1484.8073    
   4304000   299.95605     -1.3230685e+08 -6434.1172      1484.8215    
   4305000   299.93594     -1.3230691e+08 -6436.7065      1484.8358    
   4306000   300.02953     -1.3230682e+08 -6436.8308      1484.85      
   4307000   299.97902     -1.3230643e+08 -6433.7225      1484.8642    
   4308000   299.98795     -1.3230622e+08 -6441.6379      1484.8785    
