LAMMPS (23 Jun 2022)
KOKKOS mode is enabled (src/KOKKOS/kokkos.cpp:105)
  will use up to 4 GPU(s) per node
  using 1 OpenMP thread(s) per MPI task
package kokkos
package kokkos neigh half newton off
#LAMMPS input file

# ------------------------ INITIALIZATION ----------------------------
processors    * * *
units         metal
dimension    3
boundary    p    p    p
atom_style   charge
atom_modify map array sort 0 1

#--------------------------- LAMMPS Data File--------------------------

read_data    relaxed_step.lmp #reset_relaxed.lmp # model_4.lmp # pre_strained.lmp # High_sep_Cu_45.lmp # Cu_111_FR_45_MIN.lmp
Reading data file ...
  orthogonal box = (-314.8477 -522.43942 600) to (1109.3869 540.14923 1100)
  4 by 4 by 2 MPI processor grid
  reading atoms ...
  37948320 atoms
  reading velocities ...
  37948320 velocities
  read_data CPU = 135.444 seconds
#read_dump   dump.min_1862000.lammpstrj 1862000 x y z vx vy vz
variable  temp equal 150
variable  temp_init equal ${temp}*2
variable  temp_init equal 150*2
variable  sratex equal 5e-6 # in 1/ps (0.5 strain after 10ns)
# ------------------------ FORCE FIELDS ------------------------------
pair_style    eam/alloy
pair_coeff    * * Cu01.eam.alloy.txt Cu # Cu

#------------------------- SETTINGS ---------------------------------

#change_box        all x scale 1.015 remap units box

compute csym all centro/atom fcc
#compute peratom all pe/atom

# compute stresses
#compute       sf all stress/atom NULL

#-------------For Lorentz Forces from QEq----------------------------
# Apply forces
#variable qfx atomfile input_fx_new.txt
#variable qfy atomfile input_fy_new.txt
#variable qfz atomfile input_fz_new.txt
#variable qe atom  -(x*v_qfx+y*v_qfy+z*v_qfz)

#fix force_q1 all addforce v_qfx v_qfy v_qfz energy v_qe
#fix_modify force_q1 energy yes

#delete_atoms group exclude
#fix freez hold setforce 0 0 0
#fix_modify force_q2 energy yes
thermo 1000
thermo_style custom step temp pe press lx
thermo_modify flush yes
#min_style fire
#minimize 0.0 1e-4 100000 100000
#--------Thermal Relax---------------------------
velocity all create ${temp_init} 8 rot no dist gaussian
velocity all create 300 8 rot no dist gaussian
timestep  0.002
fix 1 all langevin ${temp} ${temp} 5 8
fix 1 all langevin 150 ${temp} 5 8
fix 1 all langevin 150 150 5 8
fix ensemble all nve
run 50000
Neighbor list info ...
  update every 1 steps, delay 10 steps, check yes
  max neighbors/atom: 2000, page size: 100000
  master list distance cutoff = 7.506786
  ghost atom cutoff = 7.506786
  binsize = 7.506786, bins = 190 142 67
  2 neighbor lists, perpetual/occasional/extra = 1 1 0
  (1) pair eam/alloy/kk, perpetual
      attributes: half, newton off, kokkos_device
      pair build: half/bin/kk/device
      stencil: full/bin/3d
      bin: kk/device
  (2) compute centro/atom, occasional
      attributes: full, newton off
      pair build: full/bin/atomonly
      stencil: full/bin/3d
      bin: standard
Per MPI rank memory allocation (min/avg/max) = 419 | 460.3 | 502.1 Mbytes
   Step          Temp          PotEng         Press            Lx      
         0   300           -1.3404495e+08  1734.3562      1424.2346    
      1000   150.11174     -1.3330998e+08  2970.3699      1424.2346    
      2000   149.62306     -1.3330742e+08  1032.3139      1424.2346    
      3000   149.05826     -1.3330187e+08 -601.6759       1424.2346    
      4000   149.72404     -1.3330269e+08  162.11756      1424.2346    
      5000   150.1289      -1.3330431e+08  1072.1099      1424.2346    
      6000   150.22125     -1.3330562e+08  1906.0312      1424.2346    
      7000   150.06263     -1.3330549e+08  1608.0082      1424.2346    
      8000   149.89803     -1.3330488e+08  1107.0785      1424.2346    
      9000   149.76734     -1.3330368e+08  629.65601      1424.2346    
     10000   149.86378     -1.333034e+08   680.97514      1424.2346    
     11000   150.01169     -1.3330403e+08  962.52925      1424.2346    
     12000   150.07004     -1.3330445e+08  1247.2985      1424.2346    
     13000   150.0629      -1.3330475e+08  1301.0083      1424.2346    
     14000   149.98166     -1.3330452e+08  1181.6842      1424.2346    
     15000   149.97612     -1.3330431e+08  1033.4152      1424.2346    
     16000   149.94121     -1.3330406e+08  984.07013      1424.2346    
     17000   149.97614     -1.3330427e+08  1045.497       1424.2346    
     18000   149.98393     -1.3330437e+08  1119.3093      1424.2346    
     19000   149.99328     -1.3330435e+08  1164.0347      1424.2346    
     20000   149.98517     -1.3330443e+08  1127.7984      1424.2346    
     21000   149.97177     -1.333043e+08   1079.8478      1424.2346    
     22000   149.98658     -1.3330432e+08  1041.9226      1424.2346    
     23000   149.97405     -1.3330417e+08  1058.3241      1424.2346    
     24000   149.97007     -1.3330412e+08  1081.5503      1424.2346    
     25000   150.01734     -1.3330435e+08  1106.1471      1424.2346    
     26000   150.0185      -1.333042e+08   1098.2413      1424.2346    
     27000   150.01011     -1.3330421e+08  1089.5707      1424.2346    
     28000   150.02795     -1.3330408e+08  1075.1601      1424.2346    
     29000   150.02374     -1.3330405e+08  1076.8059      1424.2346    
     30000   150.04314     -1.3330429e+08  1084.6357      1424.2346    
     31000   150.0209      -1.3330417e+08  1093.2966      1424.2346    
     32000   150.02807     -1.3330428e+08  1088.1434      1424.2346    
     33000   150.00628     -1.3330421e+08  1087.54        1424.2346    
     34000   150.00739     -1.3330411e+08  1084.5272      1424.2346    
     35000   150.00851     -1.3330419e+08  1088.4442      1424.2346    
     36000   150.00002     -1.3330417e+08  1089.3112      1424.2346    
     37000   150.02825     -1.3330421e+08  1090.7232      1424.2346    
     38000   150.0102      -1.3330413e+08  1091.5921      1424.2346    
     39000   149.97708     -1.3330421e+08  1090.656       1424.2346    
     40000   149.96779     -1.3330414e+08  1089.6627      1424.2346    
     41000   149.97998     -1.3330433e+08  1089.0122      1424.2346    
     42000   149.9712      -1.3330438e+08  1087.8067      1424.2346    
     43000   149.95528     -1.3330434e+08  1084.9601      1424.2346    
     44000   149.97803     -1.3330412e+08  1087.922       1424.2346    
     45000   150.03004     -1.3330426e+08  1091.2211      1424.2346    
     46000   150.01662     -1.3330434e+08  1096.5792      1424.2346    
     47000   150.00245     -1.3330423e+08  1088.139       1424.2346    
     48000   150.00947     -1.3330439e+08  1089.3252      1424.2346    
     49000   149.94013     -1.3330428e+08  1083.5356      1424.2346    
     50000   149.98928     -1.3330435e+08  1087.2905      1424.2346    
Loop time of 584.05 on 32 procs for 50000 steps with 37948320 atoms

Performance: 14.793 ns/day, 1.622 hours/ns, 85.609 timesteps/s
71.4% CPU use with 32 MPI tasks x 1 OpenMP threads

MPI task timing breakdown:
Section |  min time  |  avg time  |  max time  |%varavg| %total
---------------------------------------------------------------
Pair    | 213.52     | 217.93     | 221.68     |  15.3 | 37.31
Neigh   | 5.4374     | 8.7636     | 12.766     |  70.6 |  1.50
Comm    | 35.287     | 37.786     | 40.542     |  37.3 |  6.47
Output  | 0.01085    | 0.50044    | 0.89986    |  42.7 |  0.09
Modify  | 170.15     | 240.82     | 307.76     | 418.6 | 41.23
Other   |            | 78.25      |            |       | 13.40

Nlocal:    1.18588e+06 ave 1.50798e+06 max      852448 min
Histogram: 16 0 0 0 0 0 0 0 0 16
Nghost:         185734 ave      218589 max      152004 min
Histogram: 16 0 0 0 0 0 0 0 0 16
Neighs:    8.48001e+07 ave 1.07838e+08 max 6.09529e+07 min
Histogram: 16 0 0 0 0 0 0 0 0 16
FullNghs:            0 ave           0 max           0 min
Histogram: 32 0 0 0 0 0 0 0 0 0

Total # of neighbors = 2.7136028e+09
Ave neighs/atom = 71.50785
Neighbor list builds = 203
Dangerous builds = 0
unfix ensemble
write_data ${temp}_relaxed_config.lmp
write_data 150_relaxed_config.lmp
System init for write_data ...
#unfix freez
######################################
## NVT Langevin ##
#variable a loop 50
#label loop

#variable Ti equal ${temp}+($a-1)*4
#variable Tf equal ${temp}+$a*4
#reset_ids
#change_box all x scale ${eps} remap units box
fix        2 all deform 1 x erate ${sratex} units box remap x
fix        2 all deform 1 x erate 5e-06 units box remap x
#fix 1 all langevin ${temp} ${temp} 5 98

# Write dump file
#dump        shear all custom 500000 dump.min_*.lammpstrj id x y z # vx vy vz

#dump        defect all custom 100 dump.defect_*.lammpstrj id x y z c_csym
#dump_modify defect thresh c_csym <= 10 thresh c_csym > 4

fix         ensemble all nve
run 5000000
Per MPI rank memory allocation (min/avg/max) = 419 | 460.3 | 502.1 Mbytes
   Step          Temp          PotEng         Press            Lx      
     50000   149.98928     -1.3330435e+08  1087.2905      1424.2346    
     51000   149.96227     -1.3330436e+08  1079.4464      1424.2488    
     52000   149.9529      -1.3330425e+08  1076.9495      1424.2631    
     53000   149.99786     -1.3330439e+08  1066.8398      1424.2773    
     54000   150.01745     -1.3330446e+08  1071.8503      1424.2915    
     55000   149.98734     -1.3330431e+08  1070.8826      1424.3058    
     56000   149.9667      -1.333043e+08   1071.1928      1424.32      
     57000   149.96579     -1.3330431e+08  1062.2639      1424.3343    
     58000   149.97672     -1.3330421e+08  1057.0865      1424.3485    
     59000   149.97909     -1.3330433e+08  1055.2788      1424.3628    
     60000   149.98783     -1.3330436e+08  1054.3403      1424.377     
     61000   149.9767      -1.3330433e+08  1053.2784      1424.3912    
     62000   150.00906     -1.333043e+08   1050.5311      1424.4055    
     63000   150.02576     -1.3330437e+08  1044.5508      1424.4197    
     64000   149.98935     -1.3330414e+08  1044.3546      1424.434     
     65000   149.97742     -1.3330408e+08  1049.7479      1424.4482    
     66000   150.01136     -1.3330421e+08  1045.1873      1424.4625    
     67000   149.99517     -1.3330422e+08  1039.4694      1424.4767    
     68000   150.02853     -1.3330421e+08  1033.1699      1424.4909    
     69000   149.98859     -1.3330413e+08  1033.4804      1424.5052    
     70000   149.97222     -1.3330423e+08  1028.9882      1424.5194    
     71000   149.99327     -1.3330424e+08  1021.9006      1424.5337    
     72000   149.99839     -1.3330416e+08  1015.153       1424.5479    
     73000   150.0015      -1.3330417e+08  1017.077       1424.5622    
     74000   149.97368     -1.3330416e+08  1015.0614      1424.5764    
     75000   149.98031     -1.3330413e+08  1013.7634      1424.5906    
     76000   150.00052     -1.3330422e+08  1011.4722      1424.6049    
     77000   149.96451     -1.3330405e+08  1006.53        1424.6191    
     78000   150.00995     -1.3330416e+08  1003.4797      1424.6334    
     79000   149.98383     -1.3330402e+08  997.80968      1424.6476    
     80000   150.0114      -1.3330415e+08  995.39558      1424.6618    
     81000   150.01503     -1.3330412e+08  998.19182      1424.6761    
     82000   150.0075      -1.3330425e+08  997.30183      1424.6903    
     83000   149.99323     -1.3330407e+08  993.04896      1424.7046    
     84000   150.01923     -1.3330413e+08  992.90967      1424.7188    
     85000   150.00594     -1.3330417e+08  988.39138      1424.7331    
     86000   149.99565     -1.3330408e+08  981.78567      1424.7473    
     87000   149.99648     -1.3330418e+08  975.09345      1424.7615    
     88000   149.97367     -1.3330399e+08  973.53791      1424.7758    
     89000   150.00108     -1.3330411e+08  979.96456      1424.79      
     90000   149.99187     -1.3330407e+08  971.51681      1424.8043    
     91000   149.97239     -1.3330401e+08  970.05663      1424.8185    
     92000   150.00485     -1.3330406e+08  956.94484      1424.8328    
     93000   150.01525     -1.3330402e+08  963.74064      1424.847     
     94000   150.017       -1.3330399e+08  957.95375      1424.8612    
     95000   150.02334     -1.3330394e+08  960.41256      1424.8755    
     96000   150.0006      -1.3330394e+08  956.74268      1424.8897    
     97000   149.99548     -1.3330408e+08  952.76228      1424.904     
     98000   149.95953     -1.3330395e+08  949.1507       1424.9182    
     99000   150.00349     -1.3330414e+08  942.1909       1424.9325    
    100000   149.98837     -1.3330405e+08  942.22199      1424.9467    
    101000   150.03559     -1.3330407e+08  938.11634      1424.9609    
    102000   150.0273      -1.3330408e+08  940.05615      1424.9752    
    103000   149.99105     -1.3330402e+08  932.12662      1424.9894    
    104000   149.99515     -1.3330401e+08  928.33798      1425.0037    
    105000   149.98976     -1.3330388e+08  924.33558      1425.0179    
    106000   150.00235     -1.3330402e+08  916.30484      1425.0322    
    107000   149.99229     -1.3330395e+08  916.31716      1425.0464    
    108000   149.99674     -1.3330387e+08  917.0633       1425.0606    
    109000   150.04284     -1.3330407e+08  917.3447       1425.0749    
    110000   149.9871      -1.3330403e+08  913.65296      1425.0891    
    111000   149.99494     -1.3330411e+08  910.77656      1425.1034    
    112000   149.95521     -1.3330396e+08  906.09082      1425.1176    
    113000   149.9738      -1.3330412e+08  909.98989      1425.1318    
    114000   149.98405     -1.3330391e+08  905.32529      1425.1461    
    115000   149.99985     -1.3330401e+08  897.77833      1425.1603    
    116000   150.00624     -1.3330387e+08  888.32351      1425.1746    
    117000   150.02705     -1.3330381e+08  895.95459      1425.1888    
    118000   150.01298     -1.333038e+08   893.40507      1425.2031    
    119000   150.0236      -1.3330384e+08  898.56231      1425.2173    
    120000   149.99315     -1.3330381e+08  893.32154      1425.2315    
    121000   149.99848     -1.3330387e+08  887.51771      1425.2458    
    122000   150.01331     -1.3330399e+08  876.62306      1425.26      
    123000   149.9827      -1.3330389e+08  874.51027      1425.2743    
    124000   150.01498     -1.3330391e+08  880.90368      1425.2885    
    125000   150.01433     -1.3330397e+08  876.28321      1425.3028    
    126000   150.00843     -1.3330386e+08  871.13502      1425.317     
    127000   150.01669     -1.3330387e+08  863.94809      1425.3312    
    128000   150.00299     -1.3330391e+08  861.27221      1425.3455    
    129000   150.02234     -1.3330398e+08  863.38627      1425.3597    
    130000   150.01957     -1.3330403e+08  862.05871      1425.374     
    131000   149.96888     -1.3330391e+08  861.62004      1425.3882    
    132000   149.97679     -1.3330401e+08  853.62755      1425.4025    
    133000   149.97388     -1.3330401e+08  845.89085      1425.4167    
    134000   149.98002     -1.3330397e+08  842.36148      1425.4309    
    135000   149.9426      -1.3330388e+08  839.41386      1425.4452    
    136000   149.99427     -1.3330389e+08  844.51337      1425.4594    
    137000   149.97261     -1.3330382e+08  846.48029      1425.4737    
    138000   150.01445     -1.3330387e+08  843.06618      1425.4879    
    139000   149.98326     -1.333037e+08   838.62529      1425.5021    
    140000   149.99035     -1.3330393e+08  825.55594      1425.5164    
    141000   149.98333     -1.3330383e+08  822.18009      1425.5306    
    142000   149.99638     -1.3330373e+08  820.32117      1425.5449    
    143000   150.04732     -1.3330391e+08  826.28554      1425.5591    
    144000   150.01966     -1.3330367e+08  819.25013      1425.5734    
    145000   149.99493     -1.3330371e+08  815.59817      1425.5876    
    146000   150.00619     -1.3330384e+08  803.56609      1425.6018    
    147000   150.0144      -1.3330373e+08  807.81526      1425.6161    
    148000   150.01595     -1.3330381e+08  810.0117       1425.6303    
    149000   150.04516     -1.3330377e+08  808.33805      1425.6446    
    150000   150.01367     -1.3330372e+08  800.97394      1425.6588    
    151000   150.00681     -1.3330371e+08  798.42368      1425.6731    
    152000   150.00749     -1.333037e+08   793.13378      1425.6873    
    153000   149.99585     -1.333038e+08   797.09383      1425.7015    
    154000   150.00868     -1.3330374e+08  788.89342      1425.7158    
    155000   149.97967     -1.3330375e+08  790.40219      1425.73      
    156000   149.99693     -1.3330388e+08  783.761        1425.7443    
    157000   149.97769     -1.3330381e+08  781.09759      1425.7585    
    158000   150.00118     -1.3330377e+08  781.9373       1425.7728    
    159000   149.99534     -1.333036e+08   778.03322      1425.787     
    160000   150.03758     -1.333036e+08   766.81792      1425.8012    
    161000   150.01359     -1.3330356e+08  762.21531      1425.8155    
    162000   150.04522     -1.3330359e+08  760.47962      1425.8297    
    163000   150.0421      -1.3330349e+08  764.18273      1425.844     
    164000   150.02384     -1.3330354e+08  773.43401      1425.8582    
    165000   150.03045     -1.3330359e+08  764.2239       1425.8724    
    166000   150.00574     -1.3330368e+08  758.21647      1425.8867    
    167000   150.02243     -1.3330374e+08  750.47646      1425.9009    
    168000   150.01215     -1.3330364e+08  741.81386      1425.9152    
    169000   149.96846     -1.3330348e+08  743.83424      1425.9294    
    170000   149.99078     -1.3330356e+08  744.88422      1425.9437    
    171000   149.98548     -1.3330371e+08  747.79887      1425.9579    
    172000   150.00224     -1.3330371e+08  748.59498      1425.9721    
    173000   150.00885     -1.3330357e+08  741.71058      1425.9864    
    174000   149.98487     -1.3330366e+08  732.21861      1426.0006    
    175000   149.98533     -1.3330366e+08  725.101        1426.0149    
    176000   149.97814     -1.3330363e+08  728.70193      1426.0291    
    177000   150.01577     -1.3330365e+08  735.3228       1426.0434    
    178000   149.99733     -1.3330368e+08  736.4958       1426.0576    
    179000   149.98536     -1.3330375e+08  734.74384      1426.0718    
    180000   149.97109     -1.3330351e+08  718.35493      1426.0861    
    181000   150.01888     -1.3330366e+08  711.81375      1426.1003    
    182000   150.02568     -1.333037e+08   707.67845      1426.1146    
    183000   149.97504     -1.3330345e+08  706.97783      1426.1288    
    184000   150.00488     -1.3330351e+08  705.72988      1426.1431    
    185000   150.01217     -1.3330356e+08  708.24449      1426.1573    
    186000   150.02853     -1.3330373e+08  703.83308      1426.1715    
    187000   149.99859     -1.3330357e+08  704.72606      1426.1858    
    188000   149.99368     -1.3330355e+08  694.96637      1426.2       
    189000   150.01295     -1.3330345e+08  686.04902      1426.2143    
    190000   149.99726     -1.3330343e+08  686.34928      1426.2285    
    191000   149.98985     -1.333034e+08   686.32394      1426.2428    
    192000   150.00708     -1.3330342e+08  685.37749      1426.257     
    193000   150.02267     -1.3330351e+08  681.96124      1426.2712    
    194000   150.00746     -1.3330345e+08  682.68423      1426.2855    
    195000   150.01979     -1.3330341e+08  676.35661      1426.2997    
    196000   149.99058     -1.3330342e+08  671.40265      1426.314     
    197000   149.9822      -1.3330343e+08  669.02428      1426.3282    
    198000   149.9925      -1.3330345e+08  663.02318      1426.3424    
    199000   150.01761     -1.3330351e+08  660.03727      1426.3567    
    200000   149.98401     -1.3330336e+08  659.12418      1426.3709    
    201000   149.99831     -1.3330338e+08  654.38531      1426.3852    
    202000   149.97762     -1.333034e+08   653.23874      1426.3994    
    203000   149.9898      -1.3330343e+08  645.57032      1426.4137    
    204000   149.98644     -1.3330336e+08  649.13536      1426.4279    
    205000   149.98687     -1.3330326e+08  647.93888      1426.4421    
    206000   150.01981     -1.3330349e+08  651.00116      1426.4564    
    207000   149.9842      -1.3330353e+08  641.38591      1426.4706    
    208000   149.98261     -1.3330351e+08  641.10877      1426.4849    
    209000   150.00133     -1.3330349e+08  639.57137      1426.4991    
    210000   149.99212     -1.3330333e+08  640.17784      1426.5134    
    211000   149.99695     -1.3330337e+08  634.74497      1426.5276    
    212000   149.98927     -1.333035e+08   627.05604      1426.5418    
    213000   149.98539     -1.3330334e+08  631.39005      1426.5561    
    214000   149.98775     -1.333032e+08   625.99523      1426.5703    
    215000   150.00551     -1.3330339e+08  621.17411      1426.5846    
    216000   149.98163     -1.3330332e+08  611.98144      1426.5988    
    217000   150.00124     -1.3330331e+08  611.19944      1426.6131    
    218000   150.01026     -1.3330322e+08  604.62982      1426.6273    
    219000   150.01395     -1.3330328e+08  606.50935      1426.6415    
    220000   150.01805     -1.3330337e+08  608.01949      1426.6558    
    221000   150.01592     -1.3330326e+08  610.77797      1426.67      
    222000   149.99103     -1.3330326e+08  609.42524      1426.6843    
    223000   149.99011     -1.3330337e+08  597.44265      1426.6985    
    224000   149.99827     -1.3330319e+08  583.08687      1426.7127    
    225000   150.03496     -1.3330315e+08  585.7982       1426.727     
    226000   150.02991     -1.3330309e+08  589.56968      1426.7412    
    227000   150.03771     -1.3330313e+08  592.46121      1426.7555    
    228000   150.00327     -1.3330315e+08  587.91332      1426.7697    
    229000   150.00944     -1.3330328e+08  585.36437      1426.784     
    230000   150.00103     -1.3330335e+08  583.23077      1426.7982    
    231000   149.98507     -1.3330322e+08  581.6414       1426.8124    
    232000   149.99926     -1.3330337e+08  578.40498      1426.8267    
    233000   149.93485     -1.3330321e+08  571.4689       1426.8409    
    234000   149.95145     -1.3330302e+08  566.24333      1426.8552    
    235000   149.96079     -1.3330299e+08  565.02861      1426.8694    
    236000   149.98704     -1.3330316e+08  563.50496      1426.8837    
    237000   149.97727     -1.3330313e+08  559.43967      1426.8979    
    238000   149.99143     -1.3330315e+08  548.22037      1426.9121    
    239000   150.00246     -1.3330317e+08  549.91042      1426.9264    
    240000   149.99654     -1.3330313e+08  551.60769      1426.9406    
    241000   150.02039     -1.3330317e+08  544.24537      1426.9549    
    242000   150.0151      -1.3330295e+08  536.62931      1426.9691    
    243000   150.02916     -1.3330297e+08  538.50264      1426.9834    
    244000   149.97091     -1.3330289e+08  540.55659      1426.9976    
    245000   150.0052      -1.3330304e+08  537.76947      1427.0118    
    246000   150.01737     -1.333031e+08   535.70161      1427.0261    
    247000   149.98102     -1.3330308e+08  529.20313      1427.0403    
    248000   149.99848     -1.3330314e+08  529.03496      1427.0546    
    249000   150.02372     -1.3330312e+08  524.77398      1427.0688    
    250000   149.98696     -1.3330303e+08  520.49464      1427.083     
    251000   149.98238     -1.3330295e+08  520.09936      1427.0973    
    252000   150.00617     -1.3330314e+08  520.68141      1427.1115    
    253000   150.013       -1.3330313e+08  518.94641      1427.1258    
    254000   149.94835     -1.333029e+08   511.53851      1427.14      
    255000   149.9911      -1.3330299e+08  502.88269      1427.1543    
    256000   149.9783      -1.3330289e+08  505.12951      1427.1685    
    257000   149.97929     -1.3330314e+08  508.95072      1427.1827    
    258000   149.98082     -1.3330285e+08  506.66309      1427.197     
    259000   150.00353     -1.3330283e+08  500.98219      1427.2112    
    260000   150.04545     -1.333028e+08   495.80026      1427.2255    
    261000   150.01057     -1.3330265e+08  488.45676      1427.2397    
    262000   150.02055     -1.3330272e+08  484.65843      1427.254     
    263000   150.03735     -1.3330282e+08  480.87348      1427.2682    
    264000   150.0018      -1.3330271e+08  486.20865      1427.2824    
    265000   150.01584     -1.3330283e+08  483.53368      1427.2967    
    266000   150.00853     -1.3330273e+08  481.18982      1427.3109    
    267000   150.04503     -1.3330286e+08  478.84978      1427.3252    
    268000   149.98585     -1.3330289e+08  472.77084      1427.3394    
    269000   149.98949     -1.3330297e+08  468.66992      1427.3537    
    270000   149.97647     -1.3330292e+08  465.75662      1427.3679    
    271000   150.02023     -1.3330291e+08  463.82849      1427.3821    
    272000   150.00011     -1.3330272e+08  463.35545      1427.3964    
    273000   150.033       -1.3330276e+08  459.50734      1427.4106    
    274000   150.00874     -1.3330281e+08  455.29574      1427.4249    
    275000   150.03094     -1.3330289e+08  454.0244       1427.4391    
    276000   149.99144     -1.3330279e+08  452.19818      1427.4533    
    277000   149.99871     -1.3330284e+08  450.84651      1427.4676    
    278000   150.00615     -1.3330294e+08  446.58703      1427.4818    
    279000   149.97631     -1.3330283e+08  444.93572      1427.4961    
    280000   150.00173     -1.3330299e+08  437.36038      1427.5103    
    281000   149.98224     -1.3330279e+08  437.65672      1427.5246    
    282000   149.99331     -1.3330265e+08  437.98203      1427.5388    
    283000   150.00342     -1.3330271e+08  431.97335      1427.553     
    284000   149.99452     -1.3330261e+08  429.13152      1427.5673    
    285000   150.00084     -1.3330269e+08  426.40762      1427.5815    
    286000   149.98661     -1.3330267e+08  425.52082      1427.5958    
    287000   149.99632     -1.3330261e+08  421.71512      1427.61      
    288000   149.98555     -1.3330253e+08  427.39296      1427.6243    
    289000   149.99402     -1.3330254e+08  415.15616      1427.6385    
    290000   149.99027     -1.3330261e+08  411.57241      1427.6527    
    291000   149.99238     -1.333026e+08   404.40545      1427.667     
    292000   149.9976      -1.3330266e+08  402.58519      1427.6812    
    293000   150.01538     -1.3330265e+08  401.47608      1427.6955    
    294000   150.00527     -1.3330234e+08  404.96942      1427.7097    
    295000   150.03937     -1.3330255e+08  398.6069       1427.724     
    296000   150.01798     -1.3330247e+08  397.37914      1427.7382    
    297000   150.02633     -1.3330261e+08  389.87874      1427.7524    
    298000   150.02984     -1.3330255e+08  394.25559      1427.7667    
    299000   149.97206     -1.3330249e+08  384.6268       1427.7809    
    300000   149.98217     -1.3330247e+08  383.37845      1427.7952    
    301000   149.98801     -1.3330258e+08  383.41945      1427.8094    
    302000   150.00052     -1.3330251e+08  380.63007      1427.8237    
    303000   150.01572     -1.3330253e+08  378.46371      1427.8379    
    304000   150.01917     -1.3330259e+08  374.04264      1427.8521    
    305000   149.99352     -1.3330246e+08  371.73446      1427.8664    
    306000   149.98336     -1.3330241e+08  369.46247      1427.8806    
    307000   149.99889     -1.3330247e+08  368.16904      1427.8949    
    308000   150.01114     -1.3330254e+08  370.15967      1427.9091    
    309000   150.00793     -1.3330245e+08  362.95995      1427.9233    
    310000   150.00554     -1.3330231e+08  360.8787       1427.9376    
    311000   150.03552     -1.3330244e+08  346.42649      1427.9518    
    312000   149.98952     -1.3330231e+08  347.98338      1427.9661    
    313000   149.99458     -1.333024e+08   344.07023      1427.9803    
    314000   149.98999     -1.3330236e+08  350.15999      1427.9946    
    315000   150.00733     -1.3330233e+08  352.12661      1428.0088    
    316000   150.00778     -1.3330223e+08  346.80897      1428.023     
    317000   149.98287     -1.3330216e+08  332.01216      1428.0373    
    318000   149.98179     -1.3330225e+08  333.77108      1428.0515    
    319000   149.98821     -1.3330242e+08  325.28314      1428.0658    
    320000   149.99404     -1.3330232e+08  333.98629      1428.08      
    321000   150.0125      -1.3330245e+08  326.56816      1428.0943    
    322000   149.9931      -1.333022e+08   328.40741      1428.1085    
    323000   149.97225     -1.3330209e+08  322.65565      1428.1227    
    324000   149.9948      -1.3330219e+08  322.23558      1428.137     
    325000   149.99736     -1.3330219e+08  313.36434      1428.1512    
    326000   150.01149     -1.333023e+08   311.56491      1428.1655    
    327000   150.00685     -1.3330226e+08  306.36581      1428.1797    
    328000   150.00103     -1.3330231e+08  309.35576      1428.194     
    329000   149.96756     -1.333021e+08   304.31097      1428.2082    
    330000   149.9793      -1.3330206e+08  301.58073      1428.2224    
    331000   149.99049     -1.3330206e+08  297.44349      1428.2367    
    332000   150.01661     -1.333022e+08   293.6105       1428.2509    
    333000   150.00284     -1.3330211e+08  291.72491      1428.2652    
    334000   150.00739     -1.3330206e+08  287.928        1428.2794    
    335000   149.99707     -1.3330192e+08  286.42191      1428.2936    
    336000   149.9946      -1.3330206e+08  285.08421      1428.3079    
    337000   150.00773     -1.3330207e+08  287.90179      1428.3221    
    338000   150.00504     -1.3330181e+08  286.70952      1428.3364    
    339000   150.00864     -1.3330195e+08  279.25641      1428.3506    
    340000   150.01302     -1.3330187e+08  273.17787      1428.3649    
    341000   150.01818     -1.333021e+08   264.07979      1428.3791    
    342000   150.0189      -1.3330212e+08  267.5398       1428.3933    
    343000   149.98494     -1.3330207e+08  269.97712      1428.4076    
    344000   149.98015     -1.3330201e+08  272.97287      1428.4218    
    345000   149.98657     -1.3330187e+08  269.22118      1428.4361    
    346000   150.00553     -1.3330185e+08  260.07127      1428.4503    
    347000   149.99468     -1.3330204e+08  250.09123      1428.4646    
    348000   149.97038     -1.3330191e+08  249.46001      1428.4788    
    349000   150.01032     -1.3330208e+08  252.16477      1428.493     
    350000   150.00609     -1.3330198e+08  242.87319      1428.5073    
    351000   150.0129      -1.3330192e+08  245.26946      1428.5215    
    352000   149.96155     -1.3330182e+08  241.10887      1428.5358    
    353000   150.00538     -1.3330199e+08  242.50521      1428.55      
    354000   150.00139     -1.3330178e+08  239.73591      1428.5643    
    355000   150.0275      -1.3330185e+08  234.61353      1428.5785    
    356000   150.02914     -1.3330181e+08  234.1203       1428.5927    
    357000   149.99022     -1.3330193e+08  232.30554      1428.607     
    358000   149.99342     -1.3330188e+08  227.15478      1428.6212    
    359000   149.99776     -1.3330188e+08  227.04001      1428.6355    
    360000   149.99604     -1.3330186e+08  221.71514      1428.6497    
    361000   149.97001     -1.3330178e+08  217.81233      1428.6639    
    362000   149.95074     -1.3330185e+08  215.73382      1428.6782    
    363000   149.98421     -1.3330198e+08  215.41303      1428.6924    
    364000   149.9796      -1.3330175e+08  213.23458      1428.7067    
    365000   150.0074      -1.3330176e+08  212.55014      1428.7209    
    366000   150.00428     -1.3330162e+08  205.72365      1428.7352    
    367000   149.99663     -1.3330173e+08  196.66339      1428.7494    
    368000   150.01935     -1.3330182e+08  190.79487      1428.7636    
    369000   149.99284     -1.3330164e+08  188.57872      1428.7779    
    370000   149.99692     -1.3330175e+08  185.4987       1428.7921    
    371000   150.01803     -1.3330174e+08  191.76038      1428.8064    
    372000   150.01777     -1.333017e+08   191.88652      1428.8206    
    373000   150.01824     -1.3330184e+08  193.87689      1428.8349    
    374000   150.00617     -1.3330174e+08  182.6527       1428.8491    
    375000   149.99627     -1.333016e+08   175.75053      1428.8633    
    376000   149.98492     -1.3330158e+08  173.76414      1428.8776    
    377000   150.02941     -1.3330159e+08  171.42729      1428.8918    
    378000   149.99339     -1.333015e+08   168.43972      1428.9061    
    379000   150.01369     -1.3330152e+08  169.07367      1428.9203    
    380000   150.00791     -1.3330155e+08  168.30567      1428.9346    
    381000   149.99932     -1.3330148e+08  168.32638      1428.9488    
    382000   149.98844     -1.3330153e+08  160.39312      1428.963     
    383000   149.99959     -1.333015e+08   150.76152      1428.9773    
    384000   149.96305     -1.3330146e+08  146.76463      1428.9915    
    385000   149.96283     -1.3330148e+08  143.29833      1429.0058    
    386000   149.97419     -1.3330173e+08  145.68885      1429.02      
    387000   149.98872     -1.3330148e+08  145.22329      1429.0343    
    388000   150.01522     -1.3330163e+08  148.19183      1429.0485    
    389000   149.99773     -1.3330156e+08  140.56937      1429.0627    
    390000   149.97518     -1.3330143e+08  142.16701      1429.077     
    391000   149.98694     -1.3330146e+08  137.41234      1429.0912    
    392000   149.97373     -1.3330141e+08  132.69175      1429.1055    
    393000   149.96708     -1.3330141e+08  130.85623      1429.1197    
    394000   149.98033     -1.3330153e+08  128.80884      1429.1339    
    395000   149.97599     -1.3330134e+08  122.34817      1429.1482    
    396000   150.00443     -1.3330147e+08  120.73763      1429.1624    
    397000   149.98364     -1.3330129e+08  116.98565      1429.1767    
    398000   149.9774      -1.3330125e+08  114.41987      1429.1909    
    399000   150.01257     -1.3330136e+08  115.11545      1429.2052    
    400000   150.00648     -1.333013e+08   113.12703      1429.2194    
    401000   150.00585     -1.3330139e+08  108.26251      1429.2336    
    402000   149.99591     -1.3330112e+08  108.18375      1429.2479    
    403000   149.99545     -1.3330104e+08  102.50303      1429.2621    
    404000   149.99769     -1.3330103e+08  97.675505      1429.2764    
    405000   149.99725     -1.3330118e+08  89.748929      1429.2906    
    406000   150.01614     -1.3330117e+08  89.752091      1429.3049    
    407000   150.02086     -1.3330115e+08  90.507848      1429.3191    
    408000   149.98926     -1.3330107e+08  85.307686      1429.3333    
    409000   150.01167     -1.3330121e+08  83.753129      1429.3476    
    410000   149.99191     -1.3330117e+08  82.917223      1429.3618    
    411000   150.01009     -1.3330124e+08  86.663164      1429.3761    
    412000   149.9716      -1.3330122e+08  82.771937      1429.3903    
    413000   149.94533     -1.3330107e+08  80.129389      1429.4046    
    414000   149.97257     -1.3330111e+08  74.929488      1429.4188    
    415000   149.97589     -1.3330103e+08  67.049593      1429.433     
    416000   149.99208     -1.3330104e+08  60.742722      1429.4473    
    417000   150.02075     -1.3330115e+08  59.996719      1429.4615    
    418000   150.01166     -1.3330096e+08  61.220933      1429.4758    
    419000   150.01779     -1.3330092e+08  61.726137      1429.49      
    420000   150.01979     -1.333009e+08   55.335389      1429.5042    
    421000   149.99777     -1.3330092e+08  51.201707      1429.5185    
    422000   150.00921     -1.333009e+08   46.720278      1429.5327    
    423000   150.00181     -1.3330082e+08  44.749157      1429.547     
    424000   150.02675     -1.3330099e+08  49.517157      1429.5612    
    425000   150.02201     -1.3330095e+08  49.701406      1429.5755    
    426000   149.98283     -1.3330093e+08  40.6905        1429.5897    
    427000   150.01931     -1.33301e+08    33.09633       1429.6039    
    428000   150.00523     -1.3330098e+08  31.965985      1429.6182    
    429000   150.00779     -1.3330084e+08  37.366277      1429.6324    
    430000   150.03907     -1.3330087e+08  31.321124      1429.6467    
    431000   150.0136      -1.3330081e+08  25.235666      1429.6609    
    432000   149.99886     -1.3330081e+08  14.164505      1429.6752    
    433000   149.99416     -1.3330066e+08  15.913329      1429.6894    
    434000   150.0351      -1.3330081e+08  9.9104685      1429.7036    
    435000   149.9953      -1.3330057e+08  6.757257       1429.7179    
    436000   150.01691     -1.3330056e+08  6.7369176      1429.7321    
    437000   149.95689     -1.3330058e+08  8.9198589      1429.7464    
    438000   149.9866      -1.3330072e+08  8.1242629      1429.7606    
    439000   149.99612     -1.3330066e+08  5.1756187      1429.7749    
    440000   149.99205     -1.3330062e+08  2.7426945      1429.7891    
    441000   150.00636     -1.3330088e+08 -0.5012088      1429.8033    
    442000   150.00669     -1.3330073e+08  3.3107837      1429.8176    
    443000   150.01319     -1.333006e+08  -3.7446314      1429.8318    
    444000   150.00172     -1.3330064e+08 -8.020831       1429.8461    
    445000   149.98225     -1.3330058e+08 -10.559058      1429.8603    
    446000   150.00759     -1.3330062e+08 -9.028185       1429.8745    
    447000   150.01968     -1.3330063e+08 -11.064636      1429.8888    
    448000   149.99429     -1.3330045e+08 -17.662623      1429.903     
    449000   150.0227      -1.333003e+08  -21.402006      1429.9173    
    450000   150.04613     -1.3330046e+08 -25.667623      1429.9315    
    451000   149.99952     -1.3330046e+08 -25.221716      1429.9458    
    452000   150.01376     -1.3330066e+08 -28.160725      1429.96      
    453000   149.98043     -1.3330054e+08 -30.296446      1429.9742    
    454000   150.03239     -1.3330048e+08 -30.637685      1429.9885    
    455000   150.02213     -1.3330045e+08 -36.620177      1430.0027    
    456000   150.01094     -1.3330041e+08 -44.804817      1430.017     
    457000   149.99743     -1.3330035e+08 -43.174429      1430.0312    
    458000   150.02023     -1.3330032e+08 -46.24092       1430.0455    
    459000   150.03953     -1.3330038e+08 -46.937362      1430.0597    
    460000   149.99939     -1.3330027e+08 -61.082092      1430.0739    
    461000   149.97018     -1.3330025e+08 -66.85219       1430.0882    
    462000   149.98233     -1.3330032e+08 -61.39584       1430.1024    
    463000   149.98059     -1.3330045e+08 -60.440659      1430.1167    
    464000   149.97015     -1.333003e+08  -61.612118      1430.1309    
    465000   150.01411     -1.3330043e+08 -69.531382      1430.1452    
    466000   149.98901     -1.3330027e+08 -74.485131      1430.1594    
    467000   149.99462     -1.3330038e+08 -76.225862      1430.1736    
    468000   149.98388     -1.3330016e+08 -74.589122      1430.1879    
    469000   150.01642     -1.3330016e+08 -72.081793      1430.2021    
    470000   150.0174      -1.333002e+08  -78.922919      1430.2164    
    471000   150.02297     -1.3330016e+08 -81.963314      1430.2306    
    472000   150.01652     -1.3330014e+08 -91.105619      1430.2448    
    473000   150.01986     -1.3330024e+08 -89.503588      1430.2591    
    474000   150.02859     -1.3330014e+08 -86.74196       1430.2733    
    475000   150.01761     -1.3330021e+08 -90.905569      1430.2876    
    476000   150.00889     -1.3330011e+08 -91.720347      1430.3018    
    477000   150.00662     -1.3330013e+08 -100.98468      1430.3161    
    478000   149.99148     -1.3329993e+08 -100.11526      1430.3303    
    479000   150.01638     -1.3330006e+08 -103.02225      1430.3445    
    480000   150.02004     -1.3330008e+08 -102.79441      1430.3588    
    481000   150.0084      -1.3330006e+08 -109.59269      1430.373     
    482000   149.98075     -1.3329998e+08 -112.30933      1430.3873    
    483000   150.00886     -1.3329998e+08 -119.23676      1430.4015    
    484000   150.03128     -1.3329991e+08 -120.64329      1430.4158    
    485000   150.00352     -1.3329994e+08 -120.21919      1430.43      
    486000   150.00111     -1.3329991e+08 -118.55676      1430.4442    
    487000   150.0083      -1.3329977e+08 -120.80393      1430.4585    
    488000   150.03511     -1.333e+08     -125.08047      1430.4727    
    489000   149.99268     -1.3329987e+08 -138.61989      1430.487     
    490000   150.00084     -1.3329997e+08 -137.64161      1430.5012    
    491000   149.98713     -1.3329991e+08 -138.09132      1430.5155    
    492000   149.97943     -1.3329988e+08 -142.69445      1430.5297    
    493000   150.00828     -1.333e+08     -139.68948      1430.5439    
    494000   149.99886     -1.3329997e+08 -142.24962      1430.5582    
    495000   150.00264     -1.3329996e+08 -141.88198      1430.5724    
    496000   149.98174     -1.3329989e+08 -155.50215      1430.5867    
    497000   150.00553     -1.3329978e+08 -154.17644      1430.6009    
    498000   149.96157     -1.3329958e+08 -156.88052      1430.6152    
    499000   150.02123     -1.3329987e+08 -161.02041      1430.6294    
    500000   149.99226     -1.332997e+08  -162.52954      1430.6436    
    501000   149.99396     -1.3329963e+08 -167.73843      1430.6579    
    502000   149.96252     -1.3329955e+08 -170.7128       1430.6721    
    503000   149.98298     -1.3329971e+08 -176.14541      1430.6864    
    504000   149.96661     -1.3329957e+08 -171.79747      1430.7006    
    505000   149.96003     -1.3329958e+08 -174.77612      1430.7148    
    506000   150.00441     -1.3329979e+08 -178.5095       1430.7291    
    507000   150.00688     -1.3329969e+08 -175.40865      1430.7433    
    508000   149.98555     -1.3329958e+08 -187.96201      1430.7576    
    509000   149.96118     -1.3329935e+08 -190.38605      1430.7718    
    510000   149.97549     -1.3329936e+08 -191.55114      1430.7861    
    511000   150.00174     -1.3329949e+08 -193.15919      1430.8003    
    512000   150.00681     -1.3329934e+08 -193.29676      1430.8145    
    513000   150.0126      -1.3329943e+08 -197.81888      1430.8288    
    514000   150.00768     -1.3329928e+08 -204.24517      1430.843     
    515000   149.98247     -1.332992e+08  -201.57862      1430.8573    
    516000   150.00231     -1.3329943e+08 -205.47425      1430.8715    
    517000   150.02304     -1.3329958e+08 -204.62853      1430.8858    
    518000   149.94926     -1.3329929e+08 -205.89296      1430.9       
    519000   150.02353     -1.3329946e+08 -213.39817      1430.9142    
    520000   150.01652     -1.3329933e+08 -217.37685      1430.9285    
    521000   150.00116     -1.3329948e+08 -221.42371      1430.9427    
    522000   150.00102     -1.3329928e+08 -217.2094       1430.957     
    523000   150.02335     -1.3329921e+08 -223.09993      1430.9712    
    524000   150.01153     -1.3329929e+08 -223.28319      1430.9855    
    525000   150.02398     -1.3329918e+08 -230.07463      1430.9997    
    526000   150.00916     -1.3329906e+08 -226.11362      1431.0139    
    527000   150.00596     -1.332992e+08  -223.70798      1431.0282    
    528000   150.00378     -1.3329929e+08 -234.04606      1431.0424    
    529000   149.99687     -1.3329911e+08 -240.56509      1431.0567    
    530000   150.00102     -1.3329914e+08 -245.69035      1431.0709    
    531000   149.99217     -1.3329902e+08 -243.47501      1431.0851    
    532000   150.00974     -1.3329904e+08 -247.94457      1431.0994    
    533000   149.97372     -1.332989e+08  -246.75642      1431.1136    
    534000   150.04119     -1.3329894e+08 -247.52471      1431.1279    
    535000   149.99973     -1.3329887e+08 -250.75634      1431.1421    
    536000   150.03956     -1.3329904e+08 -259.54167      1431.1564    
    537000   150.01557     -1.3329899e+08 -266.98541      1431.1706    
    538000   149.99719     -1.3329904e+08 -270.45707      1431.1848    
    539000   149.97393     -1.3329907e+08 -270.85245      1431.1991    
    540000   149.98966     -1.3329911e+08 -267.81587      1431.2133    
    541000   149.97761     -1.3329883e+08 -268.28672      1431.2276    
    542000   150.01556     -1.332989e+08  -274.07612      1431.2418    
    543000   150.01361     -1.3329878e+08 -282.37615      1431.2561    
    544000   150.02084     -1.3329883e+08 -287.58136      1431.2703    
    545000   150.01195     -1.3329895e+08 -286.5652       1431.2845    
    546000   150.02036     -1.3329888e+08 -286.64458      1431.2988    
    547000   149.98838     -1.3329876e+08 -286.90909      1431.313     
    548000   150.0084      -1.3329872e+08 -283.18951      1431.3273    
    549000   150.00889     -1.332987e+08  -288.61437      1431.3415    
    550000   149.98571     -1.3329877e+08 -289.82407      1431.3558    
    551000   149.99055     -1.3329869e+08 -299.05554      1431.37      
    552000   149.98981     -1.3329873e+08 -302.07431      1431.3842    
    553000   150.00494     -1.332985e+08  -304.51563      1431.3985    
    554000   150.04027     -1.3329876e+08 -303.02264      1431.4127    
    555000   150.02497     -1.332988e+08  -297.6611       1431.427     
    556000   150.01188     -1.3329876e+08 -305.18325      1431.4412    
    557000   149.975       -1.3329868e+08 -309.12617      1431.4554    
    558000   149.97752     -1.3329886e+08 -317.09248      1431.4697    
    559000   149.95495     -1.3329886e+08 -326.24411      1431.4839    
    560000   149.96529     -1.3329874e+08 -324.97906      1431.4982    
    561000   149.97539     -1.3329869e+08 -322.64649      1431.5124    
    562000   149.98045     -1.3329866e+08 -327.51522      1431.5267    
    563000   149.9784      -1.3329867e+08 -330.60986      1431.5409    
    564000   149.99604     -1.332986e+08  -335.51932      1431.5551    
    565000   150.00066     -1.3329865e+08 -339.30425      1431.5694    
    566000   149.98882     -1.3329851e+08 -341.17633      1431.5836    
    567000   150.00368     -1.3329848e+08 -341.22074      1431.5979    
    568000   150.01084     -1.3329851e+08 -342.19991      1431.6121    
    569000   150.0071      -1.3329827e+08 -340.90961      1431.6264    
    570000   149.99515     -1.3329823e+08 -351.33388      1431.6406    
    571000   149.99396     -1.332985e+08  -358.49404      1431.6548    
    572000   150.00766     -1.3329863e+08 -363.61437      1431.6691    
    573000   149.98806     -1.3329841e+08 -358.18896      1431.6833    
    574000   149.9868      -1.3329832e+08 -357.63046      1431.6976    
    575000   150.00396     -1.3329822e+08 -360.57531      1431.7118    
    576000   150.02391     -1.332984e+08  -368.17232      1431.7261    
    577000   149.97281     -1.3329808e+08 -370.6536       1431.7403    
    578000   149.99867     -1.3329823e+08 -376.73887      1431.7545    
    579000   150.03975     -1.3329827e+08 -382.83722      1431.7688    
    580000   149.9951      -1.332982e+08  -377.77387      1431.783     
    581000   150.00279     -1.3329827e+08 -378.65235      1431.7973    
    582000   149.97871     -1.3329823e+08 -386.93631      1431.8115    
    583000   149.98484     -1.3329805e+08 -388.37061      1431.8257    
    584000   149.9866      -1.3329807e+08 -385.48446      1431.84      
    585000   150.0196      -1.3329817e+08 -380.3505       1431.8542    
    586000   149.99394     -1.3329826e+08 -387.32501      1431.8685    
    587000   149.99849     -1.3329813e+08 -393.24886      1431.8827    
    588000   149.97949     -1.3329797e+08 -401.9607       1431.897     
    589000   149.9873      -1.3329816e+08 -401.23804      1431.9112    
    590000   149.97298     -1.3329806e+08 -402.72688      1431.9254    
    591000   149.9602      -1.3329801e+08 -402.45756      1431.9397    
    592000   149.98352     -1.3329792e+08 -410.25735      1431.9539    
    593000   150.0366      -1.3329808e+08 -413.16053      1431.9682    
    594000   149.98753     -1.3329789e+08 -415.42022      1431.9824    
    595000   150.00517     -1.3329788e+08 -413.45094      1431.9967    
    596000   150.01198     -1.3329778e+08 -415.97194      1432.0109    
    597000   150.04533     -1.3329786e+08 -417.4731       1432.0251    
    598000   150.02675     -1.3329782e+08 -426.63337      1432.0394    
    599000   149.97376     -1.3329766e+08 -434.60172      1432.0536    
    600000   150.01888     -1.3329771e+08 -436.61914      1432.0679    
    601000   150.00019     -1.3329768e+08 -439.43288      1432.0821    
    602000   150.01579     -1.3329763e+08 -434.06656      1432.0964    
    603000   149.9939      -1.3329775e+08 -443.00692      1432.1106    
    604000   150.00737     -1.332977e+08  -441.30858      1432.1248    
    605000   149.98808     -1.3329761e+08 -454.41427      1432.1391    
    606000   149.98448     -1.3329747e+08 -449.20355      1432.1533    
    607000   150.01736     -1.3329765e+08 -453.67936      1432.1676    
    608000   150.00988     -1.3329761e+08 -444.03752      1432.1818    
    609000   149.99794     -1.3329758e+08 -449.21996      1432.1961    
    610000   149.99095     -1.332975e+08  -449.22751      1432.2103    
    611000   149.99069     -1.3329752e+08 -457.43726      1432.2245    
    612000   150.00459     -1.3329758e+08 -461.92685      1432.2388    
    613000   149.9903      -1.3329739e+08 -468.6329       1432.253     
    614000   149.99858     -1.3329747e+08 -468.48621      1432.2673    
    615000   149.9928      -1.3329766e+08 -465.48708      1432.2815    
    616000   149.97991     -1.3329744e+08 -464.42596      1432.2957    
    617000   150.00457     -1.3329763e+08 -472.83893      1432.31      
    618000   149.99397     -1.3329756e+08 -477.94277      1432.3242    
    619000   149.99759     -1.3329758e+08 -480.79746      1432.3385    
    620000   149.95832     -1.332973e+08  -486.50969      1432.3527    
    621000   149.95588     -1.3329724e+08 -486.3006       1432.367     
    622000   150.01762     -1.3329726e+08 -488.24492      1432.3812    
    623000   150.00148     -1.3329722e+08 -484.65037      1432.3954    
    624000   149.98053     -1.3329723e+08 -491.10687      1432.4097    
    625000   149.98221     -1.3329729e+08 -492.69808      1432.4239    
    626000   149.97734     -1.3329731e+08 -501.59225      1432.4382    
    627000   150.01364     -1.3329728e+08 -502.5445       1432.4524    
    628000   150.0341      -1.3329737e+08 -506.55013      1432.4667    
    629000   150.00804     -1.3329728e+08 -512.15609      1432.4809    
    630000   150.00248     -1.3329715e+08 -509.45144      1432.4951    
    631000   150.01339     -1.3329697e+08 -517.86099      1432.5094    
    632000   149.98288     -1.3329687e+08 -516.45386      1432.5236    
    633000   150.00689     -1.3329698e+08 -520.41014      1432.5379    
    634000   150.01942     -1.3329717e+08 -520.09328      1432.5521    
    635000   150.02095     -1.3329705e+08 -525.6102       1432.5664    
    636000   150.03502     -1.3329709e+08 -527.72565      1432.5806    
    637000   150.009       -1.3329679e+08 -531.00999      1432.5948    
    638000   149.99807     -1.3329687e+08 -528.76572      1432.6091    
    639000   149.98638     -1.3329703e+08 -534.82104      1432.6233    
    640000   149.99775     -1.3329704e+08 -538.536        1432.6376    
    641000   149.99111     -1.3329696e+08 -543.88983      1432.6518    
    642000   150.00112     -1.3329705e+08 -538.36964      1432.666     
    643000   149.98339     -1.3329698e+08 -541.31204      1432.6803    
    644000   150.00809     -1.332969e+08  -540.43846      1432.6945    
    645000   149.9831      -1.3329684e+08 -548.82641      1432.7088    
    646000   150.01205     -1.3329695e+08 -551.65982      1432.723     
    647000   150.0092      -1.3329679e+08 -560.41963      1432.7373    
    648000   150.0157      -1.3329682e+08 -564.87958      1432.7515    
    649000   150.00927     -1.3329661e+08 -562.65645      1432.7657    
    650000   150.02557     -1.3329656e+08 -564.94028      1432.78      
    651000   150.00907     -1.3329675e+08 -567.30002      1432.7942    
    652000   149.99005     -1.3329678e+08 -567.31378      1432.8085    
    653000   149.96935     -1.3329677e+08 -567.5148       1432.8227    
    654000   150.02394     -1.33297e+08   -571.0741       1432.837     
    655000   149.9542      -1.3329677e+08 -571.97358      1432.8512    
    656000   149.97219     -1.3329688e+08 -578.00816      1432.8654    
    657000   149.987       -1.332967e+08  -579.75891      1432.8797    
    658000   149.97385     -1.3329655e+08 -583.87465      1432.8939    
    659000   149.97323     -1.3329667e+08 -590.53603      1432.9082    
    660000   149.99416     -1.3329668e+08 -596.42536      1432.9224    
    661000   150.00268     -1.3329664e+08 -594.42661      1432.9367    
    662000   150.02258     -1.3329659e+08 -593.74312      1432.9509    
    663000   149.97056     -1.3329643e+08 -593.2167       1432.9651    
    664000   149.96074     -1.3329649e+08 -592.64723      1432.9794    
    665000   149.97406     -1.3329661e+08 -604.59456      1432.9936    
    666000   149.99403     -1.332966e+08  -608.3158       1433.0079    
    667000   149.99686     -1.3329642e+08 -610.97387      1433.0221    
    668000   149.98788     -1.3329642e+08 -612.36812      1433.0363    
    669000   149.98024     -1.3329637e+08 -617.71659      1433.0506    
    670000   149.96916     -1.3329632e+08 -619.93515      1433.0648    
    671000   149.98988     -1.3329627e+08 -622.84752      1433.0791    
    672000   150.01304     -1.3329641e+08 -624.94099      1433.0933    
    673000   150.03125     -1.3329634e+08 -627.3213       1433.1076    
    674000   149.99696     -1.3329617e+08 -625.60956      1433.1218    
    675000   150.02951     -1.3329622e+08 -629.37575      1433.136     
    676000   149.99093     -1.3329622e+08 -630.17729      1433.1503    
    677000   149.97958     -1.3329618e+08 -630.16284      1433.1645    
    678000   150.00278     -1.3329623e+08 -635.17429      1433.1788    
    679000   150.00599     -1.3329615e+08 -641.72465      1433.193     
    680000   149.9879      -1.3329612e+08 -647.99185      1433.2073    
    681000   149.99166     -1.3329618e+08 -652.69737      1433.2215    
    682000   149.98294     -1.3329615e+08 -651.22952      1433.2357    
    683000   149.99037     -1.332961e+08  -648.09174      1433.25      
    684000   150.01829     -1.3329616e+08 -653.68044      1433.2642    
    685000   149.98375     -1.3329584e+08 -656.50504      1433.2785    
    686000   150.0149      -1.3329597e+08 -668.82142      1433.2927    
    687000   150.00521     -1.33296e+08   -667.24545      1433.307     
    688000   150.01827     -1.3329587e+08 -667.58071      1433.3212    
    689000   150.01224     -1.332959e+08  -663.06102      1433.3354    
    690000   149.97704     -1.3329579e+08 -668.67772      1433.3497    
    691000   150.00228     -1.3329586e+08 -674.29187      1433.3639    
    692000   149.98448     -1.3329573e+08 -676.89669      1433.3782    
    693000   150.00139     -1.3329587e+08 -677.7455       1433.3924    
    694000   149.97513     -1.3329586e+08 -681.13716      1433.4067    
    695000   150.01081     -1.3329573e+08 -681.35463      1433.4209    
    696000   149.98114     -1.3329572e+08 -683.00613      1433.4351    
    697000   149.99879     -1.3329568e+08 -687.00673      1433.4494    
    698000   150.00755     -1.3329575e+08 -689.31094      1433.4636    
    699000   150.00977     -1.3329554e+08 -690.45214      1433.4779    
    700000   150.013       -1.3329559e+08 -696.9849       1433.4921    
    701000   150.00531     -1.3329544e+08 -705.6922       1433.5063    
    702000   150.0036      -1.3329546e+08 -705.42252      1433.5206    
    703000   149.97711     -1.3329542e+08 -707.05751      1433.5348    
    704000   149.9981      -1.3329555e+08 -700.09531      1433.5491    
    705000   149.95606     -1.3329552e+08 -710.42232      1433.5633    
    706000   150.00538     -1.3329575e+08 -710.64522      1433.5776    
    707000   149.96218     -1.3329541e+08 -715.31191      1433.5918    
    708000   149.97378     -1.3329538e+08 -722.08086      1433.606     
    709000   149.99411     -1.3329553e+08 -725.17601      1433.6203    
    710000   150.01842     -1.332955e+08  -724.57658      1433.6345    
    711000   150.02225     -1.3329543e+08 -724.15626      1433.6488    
    712000   149.9791      -1.3329531e+08 -726.09571      1433.663     
    713000   149.99745     -1.3329533e+08 -728.08209      1433.6773    
    714000   149.9912      -1.3329531e+08 -731.92218      1433.6915    
    715000   149.99452     -1.3329542e+08 -737.25931      1433.7057    
    716000   149.96251     -1.3329512e+08 -743.46207      1433.72      
    717000   149.98096     -1.332952e+08  -747.71855      1433.7342    
    718000   149.99465     -1.3329514e+08 -745.69531      1433.7485    
    719000   150.00468     -1.3329513e+08 -748.48403      1433.7627    
    720000   150.02858     -1.332953e+08  -749.32595      1433.777     
    721000   149.97655     -1.3329525e+08 -752.61752      1433.7912    
    722000   149.98475     -1.332952e+08  -749.81118      1433.8054    
    723000   150.00971     -1.3329518e+08 -751.47023      1433.8197    
    724000   150.02492     -1.3329524e+08 -757.09403      1433.8339    
    725000   149.98251     -1.3329509e+08 -764.4501       1433.8482    
    726000   149.98118     -1.3329522e+08 -768.91624      1433.8624    
    727000   149.98023     -1.3329511e+08 -769.9652       1433.8766    
    728000   149.98017     -1.332951e+08  -768.66634      1433.8909    
    729000   149.97045     -1.3329499e+08 -770.93541      1433.9051    
    730000   149.96561     -1.3329501e+08 -774.13329      1433.9194    
    731000   149.96943     -1.3329499e+08 -786.60169      1433.9336    
    732000   149.99987     -1.3329484e+08 -785.76506      1433.9479    
    733000   149.97676     -1.3329488e+08 -789.05774      1433.9621    
    734000   149.96217     -1.3329479e+08 -785.1303       1433.9763    
    735000   149.96007     -1.3329479e+08 -786.24205      1433.9906    
    736000   149.98127     -1.3329482e+08 -791.02423      1434.0048    
    737000   149.97262     -1.3329471e+08 -795.15296      1434.0191    
    738000   150.01421     -1.332948e+08  -800.37861      1434.0333    
    739000   150.01323     -1.3329462e+08 -794.62823      1434.0476    
    740000   150.01699     -1.3329467e+08 -797.49427      1434.0618    
    741000   149.99382     -1.3329452e+08 -797.55904      1434.076     
    742000   150.00021     -1.3329459e+08 -810.75315      1434.0903    
    743000   150.004       -1.332946e+08  -816.68621      1434.1045    
    744000   149.98915     -1.3329458e+08 -813.64251      1434.1188    
    745000   149.98883     -1.3329466e+08 -809.89518      1434.133     
    746000   150.01059     -1.3329466e+08 -816.2233       1434.1473    
    747000   149.9956      -1.3329459e+08 -814.77213      1434.1615    
    748000   149.99846     -1.3329438e+08 -828.43201      1434.1757    
    749000   149.98723     -1.3329438e+08 -831.79448      1434.19      
    750000   150.00336     -1.3329456e+08 -829.94336      1434.2042    
    751000   150.00643     -1.3329432e+08 -828.31931      1434.2185    
    752000   150.00281     -1.3329443e+08 -828.9028       1434.2327    
    753000   149.99913     -1.3329428e+08 -841.23692      1434.2469    
    754000   150.00798     -1.3329426e+08 -843.86936      1434.2612    
    755000   150.02732     -1.3329424e+08 -841.86733      1434.2754    
    756000   150.00692     -1.3329411e+08 -841.25716      1434.2897    
    757000   149.99439     -1.3329428e+08 -838.66104      1434.3039    
    758000   150.00046     -1.3329428e+08 -847.27874      1434.3182    
    759000   149.99766     -1.3329416e+08 -852.95431      1434.3324    
    760000   150.04079     -1.3329427e+08 -858.22697      1434.3466    
    761000   149.99615     -1.3329409e+08 -858.84362      1434.3609    
    762000   150.00496     -1.3329405e+08 -860.99104      1434.3751    
    763000   150.01912     -1.3329405e+08 -861.31902      1434.3894    
    764000   150.00746     -1.332941e+08  -864.17207      1434.4036    
    765000   150.00449     -1.3329393e+08 -865.95324      1434.4179    
    766000   150.00055     -1.3329407e+08 -873.83152      1434.4321    
    767000   149.97582     -1.33294e+08   -873.64344      1434.4463    
    768000   149.99373     -1.3329393e+08 -868.93176      1434.4606    
    769000   149.9969      -1.3329394e+08 -875.96885      1434.4748    
    770000   149.99878     -1.332939e+08  -881.89232      1434.4891    
    771000   149.98742     -1.332938e+08  -886.46393      1434.5033    
    772000   150.00031     -1.332939e+08  -885.99845      1434.5176    
    773000   149.9873      -1.3329372e+08 -884.59268      1434.5318    
    774000   149.96947     -1.3329381e+08 -888.469        1434.546     
    775000   150.00082     -1.3329396e+08 -893.73701      1434.5603    
    776000   150.01404     -1.3329362e+08 -892.77691      1434.5745    
    777000   149.99058     -1.3329351e+08 -898.65782      1434.5888    
    778000   150.01181     -1.3329363e+08 -899.96776      1434.603     
    779000   150.01946     -1.332937e+08  -912.61991      1434.6172    
    780000   150.01459     -1.3329364e+08 -907.33391      1434.6315    
    781000   149.98928     -1.3329352e+08 -914.56418      1434.6457    
    782000   150.01824     -1.3329357e+08 -916.29092      1434.66      
    783000   149.9974      -1.3329347e+08 -916.1822       1434.6742    
    784000   150.01214     -1.3329342e+08 -911.9835       1434.6885    
    785000   149.99934     -1.3329342e+08 -914.05093      1434.7027    
    786000   150.01018     -1.3329351e+08 -919.40179      1434.7169    
    787000   150.00296     -1.3329347e+08 -924.61307      1434.7312    
    788000   149.97444     -1.332934e+08  -929.06187      1434.7454    
    789000   149.98351     -1.3329341e+08 -929.52283      1434.7597    
    790000   149.97427     -1.3329345e+08 -925.19774      1434.7739    
    791000   149.93965     -1.332934e+08  -932.72293      1434.7882    
    792000   149.97938     -1.332934e+08  -937.78198      1434.8024    
    793000   150.00544     -1.3329338e+08 -945.96496      1434.8166    
    794000   149.99244     -1.3329328e+08 -948.20515      1434.8309    
    795000   149.9893      -1.3329313e+08 -948.87369      1434.8451    
    796000   150.00386     -1.3329316e+08 -949.97581      1434.8594    
    797000   150.00236     -1.3329309e+08 -946.75694      1434.8736    
    798000   149.98799     -1.3329317e+08 -953.54602      1434.8879    
    799000   150.01593     -1.3329302e+08 -956.95819      1434.9021    
    800000   150.02926     -1.3329314e+08 -965.31177      1434.9163    
    801000   150.00367     -1.3329304e+08 -969.83994      1434.9306    
    802000   150.0032      -1.3329303e+08 -969.93383      1434.9448    
    803000   149.93373     -1.3329299e+08 -962.47508      1434.9591    
    804000   149.97125     -1.3329309e+08 -965.16529      1434.9733    
    805000   149.99947     -1.3329319e+08 -975.0155       1434.9876    
    806000   149.99411     -1.3329296e+08 -972.62501      1435.0018    
    807000   149.99178     -1.3329294e+08 -978.35696      1435.016     
    808000   149.97043     -1.3329303e+08 -981.72867      1435.0303    
    809000   149.97188     -1.3329302e+08 -986.88428      1435.0445    
    810000   149.96809     -1.3329282e+08 -979.01493      1435.0588    
    811000   150.00597     -1.3329286e+08 -986.65202      1435.073     
    812000   150.02315     -1.3329291e+08 -987.76542      1435.0872    
    813000   150.00082     -1.3329283e+08 -993.91166      1435.1015    
    814000   149.9905      -1.3329266e+08 -995.95304      1435.1157    
    815000   150.01632     -1.3329274e+08 -998.40697      1435.13      
    816000   150.01176     -1.3329272e+08 -998.02024      1435.1442    
    817000   150.00013     -1.3329262e+08 -1009.4064      1435.1585    
    818000   149.99178     -1.3329254e+08 -1012.5296      1435.1727    
    819000   149.99033     -1.3329256e+08 -1014.9635      1435.1869    
    820000   150.00518     -1.3329257e+08 -1010.9022      1435.2012    
    821000   149.97196     -1.3329241e+08 -1010.9226      1435.2154    
    822000   149.99354     -1.3329252e+08 -1013.0281      1435.2297    
    823000   149.95992     -1.3329258e+08 -1015.8546      1435.2439    
    824000   149.9806      -1.3329268e+08 -1018.124       1435.2582    
    825000   149.95972     -1.3329247e+08 -1014.6613      1435.2724    
    826000   149.99027     -1.3329244e+08 -1023.2364      1435.2866    
    827000   149.99967     -1.3329236e+08 -1031.7215      1435.3009    
    828000   150.00605     -1.3329249e+08 -1038.3703      1435.3151    
    829000   149.99037     -1.3329232e+08 -1037.9145      1435.3294    
    830000   150.00117     -1.332922e+08  -1039.1335      1435.3436    
    831000   150.00855     -1.3329229e+08 -1039.0651      1435.3579    
    832000   150.01102     -1.3329216e+08 -1038.3097      1435.3721    
    833000   150.02712     -1.3329214e+08 -1046.7445      1435.3863    
    834000   150.02351     -1.332921e+08  -1048.6686      1435.4006    
    835000   150.02936     -1.3329206e+08 -1051.5826      1435.4148    
    836000   150.00283     -1.3329187e+08 -1054.172       1435.4291    
    837000   150.01977     -1.332919e+08  -1053.0028      1435.4433    
    838000   150.01525     -1.3329185e+08 -1053.5121      1435.4575    
    839000   150.01316     -1.3329208e+08 -1056.0355      1435.4718    
    840000   150.04791     -1.3329201e+08 -1058.3897      1435.486     
    841000   150.04327     -1.3329187e+08 -1064.4531      1435.5003    
    842000   150.01863     -1.3329188e+08 -1069.3363      1435.5145    
    843000   150.00271     -1.3329187e+08 -1076.4065      1435.5288    
    844000   149.98885     -1.3329191e+08 -1075.2063      1435.543     
    845000   149.98516     -1.3329194e+08 -1074.1534      1435.5572    
    846000   149.98984     -1.3329195e+08 -1074.8302      1435.5715    
    847000   150.00304     -1.3329211e+08 -1082.8698      1435.5857    
    848000   149.98304     -1.3329187e+08 -1088.7892      1435.6       
    849000   150.00006     -1.3329177e+08 -1093.5511      1435.6142    
    850000   150.01161     -1.3329181e+08 -1090.8168      1435.6285    
    851000   150.02315     -1.3329177e+08 -1082.6643      1435.6427    
    852000   149.99834     -1.3329165e+08 -1090.1113      1435.6569    
    853000   150.03342     -1.3329172e+08 -1102.4604      1435.6712    
    854000   149.97697     -1.3329157e+08 -1113.1509      1435.6854    
    855000   149.98934     -1.332916e+08  -1115.055       1435.6997    
    856000   149.99071     -1.3329151e+08 -1105.2658      1435.7139    
    857000   149.9808      -1.3329156e+08 -1107.4331      1435.7282    
    858000   149.98781     -1.3329159e+08 -1112.3818      1435.7424    
    859000   149.95887     -1.332915e+08  -1110.0531      1435.7566    
    860000   149.95484     -1.332916e+08  -1109.8677      1435.7709    
    861000   149.98185     -1.3329142e+08 -1107.8571      1435.7851    
    862000   149.97138     -1.3329122e+08 -1118.3808      1435.7994    
    863000   150.02277     -1.3329122e+08 -1122.1444      1435.8136    
    864000   150.03328     -1.3329123e+08 -1131.502       1435.8278    
    865000   150.00095     -1.3329114e+08 -1132.8315      1435.8421    
    866000   150.00075     -1.3329108e+08 -1135.0935      1435.8563    
    867000   149.99137     -1.3329132e+08 -1134.1849      1435.8706    
    868000   149.96637     -1.3329133e+08 -1129.6205      1435.8848    
    869000   149.97919     -1.332912e+08  -1131.2653      1435.8991    
    870000   150.01406     -1.3329106e+08 -1131.6682      1435.9133    
    871000   150.00522     -1.3329102e+08 -1144.8027      1435.9275    
    872000   149.98405     -1.3329109e+08 -1149.1742      1435.9418    
    873000   149.99888     -1.3329108e+08 -1160.6323      1435.956     
    874000   150.02593     -1.33291e+08   -1155.5106      1435.9703    
    875000   150.01456     -1.3329089e+08 -1155.6883      1435.9845    
    876000   150.03563     -1.3329108e+08 -1152.3403      1435.9988    
    877000   149.98248     -1.3329068e+08 -1158.0914      1436.013     
    878000   150.01503     -1.3329092e+08 -1158.8559      1436.0272    
    879000   150.01094     -1.3329091e+08 -1167.9836      1436.0415    
    880000   150.00028     -1.3329084e+08 -1165.3625      1436.0557    
    881000   149.99898     -1.3329075e+08 -1174.947       1436.07      
    882000   149.99213     -1.3329077e+08 -1174.7251      1436.0842    
    883000   150.01012     -1.3329074e+08 -1178.9556      1436.0985    
    884000   149.99292     -1.3329081e+08 -1180.8526      1436.1127    
    885000   149.97698     -1.3329065e+08 -1178.4229      1436.1269    
    886000   149.96879     -1.3329064e+08 -1180.5273      1436.1412    
    887000   150.01162     -1.3329072e+08 -1186.8727      1436.1554    
    888000   149.99588     -1.3329049e+08 -1183.4697      1436.1697    
    889000   149.98798     -1.3329055e+08 -1191.6823      1436.1839    
    890000   150.00874     -1.332907e+08  -1193.8751      1436.1982    
    891000   150.00116     -1.3329063e+08 -1195.5591      1436.2124    
    892000   149.97365     -1.332905e+08  -1195.0949      1436.2266    
    893000   149.96833     -1.3329045e+08 -1199.6973      1436.2409    
    894000   149.96046     -1.3329058e+08 -1206.3793      1436.2551    
    895000   149.94571     -1.3329046e+08 -1210.1356      1436.2694    
    896000   149.9675      -1.3329041e+08 -1211.6178      1436.2836    
    897000   149.97525     -1.3329042e+08 -1212.0589      1436.2978    
    898000   150.00223     -1.3329037e+08 -1212.1956      1436.3121    
    899000   149.99391     -1.3329045e+08 -1218.8128      1436.3263    
    900000   149.99451     -1.3329034e+08 -1222.3676      1436.3406    
    901000   149.98096     -1.3329037e+08 -1229.9274      1436.3548    
    902000   149.96777     -1.3329018e+08 -1221.3819      1436.3691    
    903000   149.99564     -1.3329027e+08 -1219.6133      1436.3833    
    904000   149.99184     -1.3329027e+08 -1222.9135      1436.3975    
    905000   149.97631     -1.3329029e+08 -1232.7868      1436.4118    
    906000   149.9517      -1.3328998e+08 -1236.165       1436.426     
    907000   149.98885     -1.3329013e+08 -1241.6167      1436.4403    
    908000   149.98103     -1.3329003e+08 -1244.0488      1436.4545    
    909000   149.97748     -1.3329e+08    -1237.9627      1436.4688    
    910000   149.99142     -1.3329008e+08 -1239.5144      1436.483     
    911000   149.9732      -1.3328995e+08 -1245.9176      1436.4972    
    912000   149.99562     -1.3328994e+08 -1256.5563      1436.5115    
    913000   150.01189     -1.3328989e+08 -1257.4699      1436.5257    
    914000   150.03033     -1.3328983e+08 -1259.5096      1436.54      
    915000   150.02335     -1.3328989e+08 -1253.7277      1436.5542    
    916000   149.99137     -1.3328969e+08 -1254.4581      1436.5685    
    917000   150.024       -1.3328969e+08 -1256.304       1436.5827    
    918000   150.01365     -1.3328966e+08 -1263.9902      1436.5969    
    919000   150.03102     -1.3328952e+08 -1264.8977      1436.6112    
    920000   150.02527     -1.3328957e+08 -1266.4613      1436.6254    
    921000   150.02145     -1.332895e+08  -1268.3453      1436.6397    
    922000   150.02191     -1.3328954e+08 -1270.1541      1436.6539    
    923000   149.98213     -1.3328944e+08 -1279.8342      1436.6681    
    924000   150.01339     -1.3328943e+08 -1281.7138      1436.6824    
    925000   150.01598     -1.3328942e+08 -1285.7667      1436.6966    
    926000   149.99765     -1.3328949e+08 -1284.2524      1436.7109    
    927000   149.97064     -1.3328949e+08 -1290.7763      1436.7251    
    928000   149.97813     -1.3328952e+08 -1291.1735      1436.7394    
    929000   149.99823     -1.3328957e+08 -1295.4538      1436.7536    
    930000   150.0057      -1.332895e+08  -1296.4179      1436.7678    
    931000   150.00735     -1.332893e+08  -1302.3708      1436.7821    
    932000   150.00328     -1.3328932e+08 -1300.6847      1436.7963    
    933000   149.99848     -1.3328934e+08 -1299.8743      1436.8106    
    934000   149.99947     -1.3328948e+08 -1304.9466      1436.8248    
    935000   149.9664      -1.3328909e+08 -1310.4058      1436.8391    
    936000   149.9645      -1.3328907e+08 -1319.7074      1436.8533    
    937000   149.98237     -1.3328889e+08 -1320.3496      1436.8675    
    938000   150.04417     -1.3328915e+08 -1317.3591      1436.8818    
    939000   150.00136     -1.3328913e+08 -1313.8904      1436.896     
    940000   150.02053     -1.3328913e+08 -1317.5686      1436.9103    
    941000   149.96256     -1.3328897e+08 -1323.2405      1436.9245    
    942000   150.00288     -1.3328909e+08 -1330.6262      1436.9388    
    943000   149.99945     -1.332891e+08  -1329.7846      1436.953     
    944000   149.98268     -1.3328883e+08 -1328.8068      1436.9672    
    945000   150.0056      -1.3328887e+08 -1334.2476      1436.9815    
    946000   150.01032     -1.3328878e+08 -1337.9701      1436.9957    
    947000   149.99961     -1.332887e+08  -1341.8279      1437.01      
    948000   149.99093     -1.3328885e+08 -1349.6336      1437.0242    
    949000   149.97786     -1.3328885e+08 -1347.7548      1437.0384    
    950000   149.97664     -1.3328862e+08 -1347.7017      1437.0527    
    951000   150.02641     -1.332886e+08  -1349.7866      1437.0669    
    952000   149.9987      -1.3328858e+08 -1349.2998      1437.0812    
    953000   150.02303     -1.3328879e+08 -1360.9444      1437.0954    
    954000   150.0083      -1.332886e+08  -1358.6949      1437.1097    
    955000   150.03239     -1.3328848e+08 -1363.8845      1437.1239    
    956000   149.99825     -1.3328846e+08 -1358.4888      1437.1381    
    957000   150.00264     -1.3328861e+08 -1364.3323      1437.1524    
    958000   149.99293     -1.3328874e+08 -1368.1275      1437.1666    
    959000   149.99002     -1.332885e+08  -1371.2199      1437.1809    
    960000   149.97571     -1.3328854e+08 -1373.1443      1437.1951    
    961000   149.97281     -1.3328852e+08 -1376.6699      1437.2094    
    962000   150.01265     -1.3328849e+08 -1380.5205      1437.2236    
    963000   149.98283     -1.332883e+08  -1380.6789      1437.2378    
    964000   149.99521     -1.3328835e+08 -1385.6004      1437.2521    
    965000   150.02376     -1.3328837e+08 -1391.8924      1437.2663    
    966000   149.98649     -1.332883e+08  -1388.2936      1437.2806    
    967000   150.01383     -1.3328833e+08 -1390.3087      1437.2948    
    968000   149.97458     -1.3328815e+08 -1389.4467      1437.3091    
    969000   149.9275      -1.3328814e+08 -1398.0406      1437.3233    
    970000   149.96819     -1.3328816e+08 -1401.7676      1437.3375    
    971000   149.98721     -1.3328827e+08 -1407.0335      1437.3518    
    972000   149.9906      -1.3328813e+08 -1403.4326      1437.366     
    973000   149.97454     -1.33288e+08   -1405.2923      1437.3803    
    974000   149.98524     -1.3328791e+08 -1411.0153      1437.3945    
    975000   150.02401     -1.3328822e+08 -1420.5045      1437.4087    
    976000   149.98901     -1.33288e+08   -1415.8158      1437.423     
    977000   149.99998     -1.3328785e+08 -1419.184       1437.4372    
    978000   150.00757     -1.3328775e+08 -1418.1819      1437.4515    
    979000   150.00381     -1.3328761e+08 -1423.7833      1437.4657    
    980000   150.02888     -1.332877e+08  -1422.31        1437.48      
    981000   150.01357     -1.3328771e+08 -1428.5033      1437.4942    
    982000   150.01291     -1.332877e+08  -1430.3054      1437.5084    
    983000   150.02386     -1.3328777e+08 -1435.5963      1437.5227    
    984000   149.96286     -1.3328765e+08 -1431.5832      1437.5369    
    985000   150.01193     -1.3328787e+08 -1435.6384      1437.5512    
    986000   149.9807      -1.3328776e+08 -1432.1821      1437.5654    
    987000   149.95762     -1.3328738e+08 -1439.0244      1437.5797    
    988000   149.96588     -1.3328761e+08 -1444.5229      1437.5939    
    989000   150.00667     -1.3328769e+08 -1448.2066      1437.6081    
    990000   149.98848     -1.3328764e+08 -1447.0826      1437.6224    
    991000   150.02483     -1.3328763e+08 -1451.71        1437.6366    
    992000   149.97033     -1.3328746e+08 -1457.1001      1437.6509    
    993000   149.96434     -1.3328736e+08 -1470.2833      1437.6651    
    994000   149.9509      -1.3328729e+08 -1461.9147      1437.6794    
    995000   149.96965     -1.3328735e+08 -1463.8323      1437.6936    
    996000   149.95775     -1.3328725e+08 -1461.5454      1437.7078    
    997000   150.00625     -1.3328726e+08 -1466.3629      1437.7221    
    998000   150.01917     -1.3328723e+08 -1471.8709      1437.7363    
    999000   150.02032     -1.3328714e+08 -1472.0062      1437.7506    
   1000000   150.01808     -1.3328697e+08 -1475.2341      1437.7648    
   1001000   150.00556     -1.332869e+08  -1481.7057      1437.7791    
   1002000   150.00703     -1.3328697e+08 -1480.6961      1437.7933    
   1003000   150.01554     -1.3328707e+08 -1482.8731      1437.8075    
   1004000   149.99575     -1.3328712e+08 -1479.8147      1437.8218    
   1005000   150.01405     -1.3328696e+08 -1486.0237      1437.836     
   1006000   150.00331     -1.3328677e+08 -1490.9225      1437.8503    
   1007000   150.00729     -1.3328692e+08 -1501.3074      1437.8645    
   1008000   149.97181     -1.3328681e+08 -1501.848       1437.8787    
   1009000   149.9781      -1.3328674e+08 -1502.8321      1437.893     
   1010000   150.01879     -1.3328687e+08 -1499.7961      1437.9072    
   1011000   150.028       -1.3328685e+08 -1503.4896      1437.9215    
   1012000   149.97714     -1.3328679e+08 -1509.3513      1437.9357    
   1013000   150.00633     -1.3328673e+08 -1515.5327      1437.95      
   1014000   150.03162     -1.3328673e+08 -1514.8045      1437.9642    
   1015000   150.00728     -1.3328649e+08 -1514.139       1437.9784    
   1016000   150.01394     -1.332867e+08  -1515.4523      1437.9927    
   1017000   150.00699     -1.3328659e+08 -1516.3792      1438.0069    
   1018000   150.04528     -1.3328667e+08 -1518.0687      1438.0212    
   1019000   149.99425     -1.3328632e+08 -1519.5755      1438.0354    
   1020000   150.01865     -1.3328649e+08 -1527.7677      1438.0497    
   1021000   149.98549     -1.3328634e+08 -1528.5932      1438.0639    
   1022000   150.01478     -1.3328644e+08 -1536.8555      1438.0781    
   1023000   149.99658     -1.3328631e+08 -1533.2362      1438.0924    
   1024000   150.02294     -1.3328618e+08 -1538.9667      1438.1066    
   1025000   150.01931     -1.3328624e+08 -1547.3401      1438.1209    
   1026000   150.00475     -1.3328632e+08 -1552.4207      1438.1351    
   1027000   149.99664     -1.3328615e+08 -1549.775       1438.1494    
   1028000   150.01109     -1.3328618e+08 -1547.6062      1438.1636    
   1029000   150.01171     -1.3328606e+08 -1543.3028      1438.1778    
   1030000   150.00856     -1.332861e+08  -1549.5021      1438.1921    
   1031000   149.9849      -1.3328586e+08 -1550.2551      1438.2063    
   1032000   150.02548     -1.3328618e+08 -1560.0797      1438.2206    
   1033000   149.99112     -1.3328595e+08 -1561.3914      1438.2348    
   1034000   149.98425     -1.3328595e+08 -1565.5085      1438.249     
   1035000   150.00619     -1.3328597e+08 -1565.2153      1438.2633    
   1036000   150.01248     -1.3328584e+08 -1567.8217      1438.2775    
[...]
   4526000   150.01245     -1.3312308e+08 -7090.5141      1487.9833    
   4527000   150.02023     -1.3312311e+08 -7096.1371      1487.9976    
   4528000   150.0241      -1.3312312e+08 -7093.8876      1488.0118    
   4529000   150.00832     -1.33123e+08   -7093.6085      1488.026     
   4530000   149.9943      -1.3312281e+08 -7091.3156      1488.0403    
   4531000   150.0129      -1.3312271e+08 -7090.7369      1488.0545    
   4532000   149.99948     -1.3312247e+08 -7096.5753      1488.0688    
   4533000   149.99562     -1.3312236e+08 -7103.6714      1488.083     
   4534000   150.03128     -1.3312224e+08 -7110.0445      1488.0973    
   4535000   150.04066     -1.3312206e+08 -7104.0811      1488.1115    
   4536000   150.04726     -1.331221e+08  -7108.3847      1488.1257    
   4537000   150.00352     -1.3312192e+08 -7105.5462      1488.14      
   4538000   150.01757     -1.3312196e+08 -7111.6764      1488.1542    
   4539000   150.01987     -1.331218e+08  -7114.1493      1488.1685    
   4540000   150.03927     -1.3312185e+08 -7124.0949      1488.1827    
   4541000   150.02308     -1.3312158e+08 -7120.6555      1488.197     
   4542000   150.01061     -1.331214e+08  -7121.8696      1488.2112    
   4543000   150.02345     -1.3312137e+08 -7118.7228      1488.2254    
   4544000   150.02824     -1.3312133e+08 -7124.2999      1488.2397    
   4545000   149.97339     -1.3312129e+08 -7132.1933      1488.2539    
   4546000   149.97759     -1.3312115e+08 -7133.164       1488.2682    
   4547000   149.99487     -1.3312116e+08 -7131.8722      1488.2824    
   4548000   149.99037     -1.3312099e+08 -7132.5061      1488.2967    
   4549000   150.00684     -1.3312107e+08 -7134.9438      1488.3109    
   4550000   149.97659     -1.3312081e+08 -7131.1536      1488.3251    
   4551000   149.971       -1.3312082e+08 -7136.9761      1488.3394    
   4552000   149.99338     -1.3312076e+08 -7138.4389      1488.3536    
   4553000   149.97525     -1.3312063e+08 -7136.4833      1488.3679    
   4554000   149.99989     -1.331205e+08  -7137.8697      1488.3821    
   4555000   149.98782     -1.3312036e+08 -7141.9601      1488.3963    
   4556000   149.99485     -1.3312014e+08 -7150.9725      1488.4106    
   4557000   149.9911      -1.3311996e+08 -7149.9392      1488.4248    
   4558000   149.98036     -1.3311988e+08 -7149.0824      1488.4391    
   4559000   149.99324     -1.3311983e+08 -7147.2049      1488.4533    
   4560000   149.98034     -1.3311963e+08 -7148.4564      1488.4676    
   4561000   150.0241      -1.3311969e+08 -7150.5505      1488.4818    
   4562000   149.98923     -1.331197e+08  -7156.6784      1488.496     
   4563000   149.98034     -1.331197e+08  -7157.1195      1488.5103    
   4564000   149.95412     -1.3311954e+08 -7163.8095      1488.5245    
   4565000   149.95388     -1.3311936e+08 -7162.2563      1488.5388    
   4566000   149.95614     -1.3311928e+08 -7162.2007      1488.553     
   4567000   149.97171     -1.3311929e+08 -7163.387       1488.5673    
   4568000   149.98914     -1.3311911e+08 -7172.8348      1488.5815    
   4569000   149.99597     -1.3311894e+08 -7173.848       1488.5957    
   4570000   149.98479     -1.3311874e+08 -7174.7437      1488.61      
   4571000   149.99774     -1.3311872e+08 -7173.3113      1488.6242    
   4572000   149.98746     -1.331187e+08  -7174.6625      1488.6385    
   4573000   149.99892     -1.3311855e+08 -7175.5879      1488.6527    
   4574000   149.99379     -1.3311858e+08 -7178.6137      1488.667     
   4575000   150.00559     -1.3311826e+08 -7177.8351      1488.6812    
   4576000   149.99865     -1.331183e+08  -7185.114       1488.6954    
   4577000   149.99569     -1.3311812e+08 -7188.3361      1488.7097    
   4578000   150.02093     -1.331179e+08  -7192.9155      1488.7239    
   4579000   149.99485     -1.3311774e+08 -7191.6951      1488.7382    
   4580000   150.0146      -1.3311785e+08 -7191.3408      1488.7524    
   4581000   149.98943     -1.3311765e+08 -7193.0815      1488.7666    
   4582000   150.0055      -1.3311757e+08 -7195.6995      1488.7809    
   4583000   150.00453     -1.331175e+08  -7192.9837      1488.7951    
   4584000   150.01093     -1.3311743e+08 -7190.9894      1488.8094    
   4585000   149.99961     -1.3311734e+08 -7196.8173      1488.8236    
   4586000   150.00567     -1.3311723e+08 -7196.9118      1488.8379    
   4587000   150.00238     -1.3311709e+08 -7202.8675      1488.8521    
   4588000   149.98418     -1.3311692e+08 -7199.945       1488.8663    
   4589000   149.98044     -1.3311695e+08 -7208.4939      1488.8806    
   4590000   150.00887     -1.3311688e+08 -7212.7554      1488.8948    
   4591000   150.00027     -1.3311672e+08 -7215.4057      1488.9091    
   4592000   149.98761     -1.3311643e+08 -7209.0371      1488.9233    
   4593000   150.0189      -1.3311658e+08 -7214.1591      1488.9376    
   4594000   150.01248     -1.3311656e+08 -7210.8104      1488.9518    
   4595000   149.98898     -1.3311629e+08 -7217.7141      1488.966     
   4596000   149.99345     -1.3311617e+08 -7218.3844      1488.9803    
   4597000   150.00655     -1.3311618e+08 -7217.6934      1488.9945    
   4598000   149.96777     -1.3311601e+08 -7221.8824      1489.0088    
   4599000   149.97801     -1.3311591e+08 -7215.9372      1489.023     
   4600000   150.00189     -1.3311589e+08 -7218.6622      1489.0373    
   4601000   149.9973      -1.3311578e+08 -7219.1601      1489.0515    
   4602000   149.98865     -1.3311552e+08 -7223.7224      1489.0657    
   4603000   149.99661     -1.3311559e+08 -7229.126       1489.08      
   4604000   149.99698     -1.3311548e+08 -7239.2046      1489.0942    
   4605000   150.02984     -1.3311538e+08 -7239.2743      1489.1085    
   4606000   150.03714     -1.3311529e+08 -7238.1476      1489.1227    
   4607000   149.99758     -1.3311514e+08 -7230.1451      1489.1369    
   4608000   150.00989     -1.3311505e+08 -7237.6337      1489.1512    
   4609000   150.0224      -1.3311493e+08 -7239.8731      1489.1654    
   4610000   150.02409     -1.3311463e+08 -7242.5597      1489.1797    
   4611000   149.99829     -1.3311464e+08 -7239.0394      1489.1939    
   4612000   149.98739     -1.3311446e+08 -7244.1263      1489.2082    
   4613000   150.01028     -1.331146e+08  -7247.4083      1489.2224    
   4614000   150.02297     -1.3311443e+08 -7256.6654      1489.2366    
   4615000   149.97954     -1.331142e+08  -7255.647       1489.2509    
   4616000   150.03967     -1.331143e+08  -7255.9075      1489.2651    
   4617000   150.01604     -1.3311432e+08 -7257.1963      1489.2794    
   4618000   149.99387     -1.3311402e+08 -7258.4266      1489.2936    
   4619000   149.99829     -1.3311392e+08 -7260.238       1489.3079    
   4620000   150.01465     -1.3311395e+08 -7263.6092      1489.3221    
   4621000   150.0219      -1.3311376e+08 -7261.8608      1489.3363    
   4622000   150.01434     -1.3311364e+08 -7264.3533      1489.3506    
   4623000   150.01272     -1.3311349e+08 -7269.5344      1489.3648    
   4624000   149.96077     -1.3311344e+08 -7276.7519      1489.3791    
   4625000   149.97796     -1.3311348e+08 -7276.5868      1489.3933    
   4626000   150.01177     -1.3311351e+08 -7272.1204      1489.4076    
   4627000   149.98418     -1.3311325e+08 -7272.3727      1489.4218    
   4628000   149.9844      -1.3311296e+08 -7273.5708      1489.436     
   4629000   149.99996     -1.3311292e+08 -7283.9536      1489.4503    
   4630000   150.01703     -1.3311278e+08 -7287.7469      1489.4645    
   4631000   150.00021     -1.3311266e+08 -7292.7734      1489.4788    
   4632000   150.02011     -1.331126e+08  -7286.5768      1489.493     
   4633000   150.02078     -1.3311252e+08 -7274.5379      1489.5073    
   4634000   150.04491     -1.3311245e+08 -7279.7727      1489.5215    
   4635000   150.01834     -1.3311228e+08 -7287.5291      1489.5357    
   4636000   149.97054     -1.3311227e+08 -7296.6802      1489.55      
   4637000   150.00557     -1.3311219e+08 -7293.185       1489.5642    
   4638000   149.98373     -1.3311201e+08 -7290.6198      1489.5785    
   4639000   150.01415     -1.331119e+08  -7289.8865      1489.5927    
   4640000   149.97998     -1.331118e+08  -7300.557       1489.6069    
   4641000   150.00717     -1.3311174e+08 -7309.3139      1489.6212    
   4642000   150.02384     -1.3311166e+08 -7305.0426      1489.6354    
   4643000   150.03764     -1.3311155e+08 -7304.6176      1489.6497    
   4644000   150.02227     -1.3311123e+08 -7302.1674      1489.6639    
   4645000   150.03858     -1.331112e+08  -7310.45        1489.6782    
   4646000   150.03344     -1.331112e+08  -7308.6527      1489.6924    
   4647000   150.04823     -1.3311103e+08 -7311.1998      1489.7066    
   4648000   149.99489     -1.3311094e+08 -7313.5603      1489.7209    
   4649000   150.01335     -1.3311086e+08 -7312.4663      1489.7351    
   4650000   149.99881     -1.3311076e+08 -7318.9173      1489.7494    
   4651000   149.97702     -1.331106e+08  -7326.5576      1489.7636    
   4652000   149.97446     -1.3311054e+08 -7329.121       1489.7779    
   4653000   150.01786     -1.3311068e+08 -7329.5207      1489.7921    
   4654000   149.99308     -1.3311063e+08 -7324.7685      1489.8063    
   4655000   149.98137     -1.331105e+08  -7323.5969      1489.8206    
   4656000   149.98157     -1.3311034e+08 -7325.9496      1489.8348    
   4657000   149.9822      -1.3311017e+08 -7323.8595      1489.8491    
   4658000   149.98725     -1.3311002e+08 -7332.3494      1489.8633    
   4659000   149.97978     -1.3310996e+08 -7332.8838      1489.8776    
   4660000   150.0183      -1.3310983e+08 -7333.3072      1489.8918    
   4661000   150.01721     -1.3310972e+08 -7334.7916      1489.906     
   4662000   150.02761     -1.3310974e+08 -7338.4601      1489.9203    
   4663000   150.01907     -1.3310969e+08 -7343.2627      1489.9345    
   4664000   149.995       -1.3310946e+08 -7342.2201      1489.9488    
   4665000   149.98584     -1.3310931e+08 -7343.3328      1489.963     
   4666000   150.01038     -1.3310919e+08 -7341.9021      1489.9772    
   4667000   150.00123     -1.3310926e+08 -7349.2734      1489.9915    
   4668000   150.00986     -1.3310915e+08 -7348.283       1490.0057    
   4669000   149.98115     -1.3310889e+08 -7352.8084      1490.02      
   4670000   149.99925     -1.3310873e+08 -7346.5081      1490.0342    
   4671000   149.98344     -1.3310862e+08 -7348.7065      1490.0485    
   4672000   149.96371     -1.3310861e+08 -7355.2223      1490.0627    
   4673000   150.00901     -1.3310853e+08 -7361.4051      1490.0769    
   4674000   150.00325     -1.3310837e+08 -7368.9337      1490.0912    
   4675000   150.02363     -1.3310838e+08 -7366.3257      1490.1054    
   4676000   150.00593     -1.3310827e+08 -7359.7436      1490.1197    
   4677000   150.0072      -1.331082e+08  -7359.9207      1490.1339    
   4678000   149.98025     -1.3310808e+08 -7362.1031      1490.1482    
   4679000   150.0193      -1.3310797e+08 -7363.73        1490.1624    
   4680000   150.00605     -1.3310775e+08 -7368.5104      1490.1766    
   4681000   149.97432     -1.3310761e+08 -7374.5987      1490.1909    
   4682000   149.99683     -1.3310757e+08 -7367.8346      1490.2051    
   4683000   149.972       -1.3310748e+08 -7375.755       1490.2194    
   4684000   149.99787     -1.3310749e+08 -7378.4165      1490.2336    
   4685000   149.97798     -1.3310725e+08 -7383.1806      1490.2479    
   4686000   149.99371     -1.3310733e+08 -7380.3145      1490.2621    
   4687000   150.01793     -1.3310725e+08 -7383.6054      1490.2763    
   4688000   149.98917     -1.3310692e+08 -7382.8896      1490.2906    
   4689000   149.97856     -1.3310684e+08 -7381.8322      1490.3048    
   4690000   149.98964     -1.3310683e+08 -7381.5055      1490.3191    
   4691000   149.97554     -1.3310673e+08 -7388.3551      1490.3333    
   4692000   150.01979     -1.3310669e+08 -7390.7357      1490.3475    
   4693000   150.0125      -1.3310647e+08 -7384.1867      1490.3618    
   4694000   150.01294     -1.3310646e+08 -7391.7556      1490.376     
   4695000   150.0114      -1.3310634e+08 -7397.4699      1490.3903    
   4696000   149.98552     -1.3310608e+08 -7401.7868      1490.4045    
   4697000   149.98323     -1.3310601e+08 -7400.412       1490.4188    
   4698000   150.00963     -1.3310603e+08 -7395.5483      1490.433     
   4699000   149.99936     -1.3310604e+08 -7401.9537      1490.4472    
   4700000   149.99458     -1.3310602e+08 -7406.7301      1490.4615    
   4701000   149.97505     -1.3310582e+08 -7413.977       1490.4757    
   4702000   149.97557     -1.3310574e+08 -7414.8477      1490.49      
   4703000   149.96797     -1.3310568e+08 -7407.6476      1490.5042    
   4704000   149.94544     -1.3310559e+08 -7405.8525      1490.5185    
   4705000   149.98626     -1.3310534e+08 -7408.4464      1490.5327    
   4706000   149.96226     -1.3310515e+08 -7408.9951      1490.5469    
   4707000   149.9983      -1.3310519e+08 -7418.5651      1490.5612    
   4708000   149.9832      -1.3310513e+08 -7422.0978      1490.5754    
   4709000   149.99754     -1.3310501e+08 -7426.1587      1490.5897    
   4710000   150.00641     -1.331049e+08  -7425.1819      1490.6039    
   4711000   149.97276     -1.331046e+08  -7420.7417      1490.6182    
   4712000   149.98352     -1.3310456e+08 -7425.7629      1490.6324    
   4713000   150.00847     -1.3310446e+08 -7426.5211      1490.6466    
   4714000   149.99429     -1.3310432e+08 -7428.7658      1490.6609    
   4715000   149.99317     -1.3310416e+08 -7435.95        1490.6751    
   4716000   149.97404     -1.3310419e+08 -7441.2666      1490.6894    
   4717000   150.02103     -1.3310415e+08 -7437.0866      1490.7036    
   4718000   149.99351     -1.33104e+08   -7433.7921      1490.7178    
   4719000   150.00592     -1.3310394e+08 -7439.1291      1490.7321    
   4720000   149.96973     -1.3310368e+08 -7437.269       1490.7463    
   4721000   150.02354     -1.3310371e+08 -7440.0915      1490.7606    
   4722000   150.00242     -1.3310344e+08 -7444.8193      1490.7748    
   4723000   149.99696     -1.3310337e+08 -7453.0021      1490.7891    
   4724000   149.98651     -1.3310325e+08 -7446.3861      1490.8033    
   4725000   150.00911     -1.3310337e+08 -7450.8876      1490.8175    
   4726000   149.97762     -1.3310303e+08 -7448.9243      1490.8318    
   4727000   149.99872     -1.3310311e+08 -7456.3701      1490.846     
   4728000   149.96419     -1.3310281e+08 -7453.9357      1490.8603    
   4729000   149.99709     -1.3310268e+08 -7459.5032      1490.8745    
   4730000   149.99932     -1.3310276e+08 -7458.1386      1490.8888    
   4731000   149.99764     -1.3310266e+08 -7456.075       1490.903     
   4732000   150.02004     -1.3310267e+08 -7453.4955      1490.9172    
   4733000   149.96196     -1.331024e+08  -7460.7864      1490.9315    
   4734000   149.99541     -1.3310245e+08 -7464.5824      1490.9457    
   4735000   150.0001      -1.331023e+08  -7464.39        1490.96      
   4736000   149.98177     -1.331021e+08  -7467.2403      1490.9742    
   4737000   149.97713     -1.3310205e+08 -7469.162       1490.9885    
   4738000   149.97457     -1.3310199e+08 -7475.5736      1491.0027    
   4739000   149.97385     -1.3310184e+08 -7474.1136      1491.0169    
   4740000   149.99446     -1.3310172e+08 -7475.2773      1491.0312    
   4741000   150.01131     -1.3310173e+08 -7471.8563      1491.0454    
   4742000   149.99032     -1.3310148e+08 -7475.4444      1491.0597    
   4743000   150.00336     -1.3310153e+08 -7484.8082      1491.0739    
   4744000   149.99436     -1.3310137e+08 -7492.8487      1491.0882    
   4745000   149.97325     -1.3310121e+08 -7487.221       1491.1024    
   4746000   149.99954     -1.3310111e+08 -7479.6811      1491.1166    
   4747000   149.97475     -1.3310088e+08 -7480.2336      1491.1309    
   4748000   149.98566     -1.3310078e+08 -7489.976       1491.1451    
   4749000   150.00426     -1.331008e+08  -7496.6458      1491.1594    
   4750000   149.98092     -1.3310058e+08 -7492.1087      1491.1736    
   4751000   149.99875     -1.3310051e+08 -7492.6387      1491.1878    
   4752000   149.98882     -1.3310042e+08 -7494.782       1491.2021    
   4753000   150.01688     -1.331004e+08  -7498.9469      1491.2163    
   4754000   149.99063     -1.3310023e+08 -7504.3808      1491.2306    
   4755000   150.01073     -1.3310024e+08 -7504.0997      1491.2448    
   4756000   149.98318     -1.3309991e+08 -7503.9769      1491.2591    
   4757000   149.99852     -1.3309997e+08 -7502.3937      1491.2733    
   4758000   150.00303     -1.3309991e+08 -7507.1038      1491.2875    
   4759000   150.04497     -1.3309985e+08 -7509.3531      1491.3018    
   4760000   149.98864     -1.3309965e+08 -7513.0058      1491.316     
   4761000   149.99779     -1.3309941e+08 -7508.506       1491.3303    
   4762000   150.02552     -1.3309954e+08 -7517.4766      1491.3445    
   4763000   149.98957     -1.3309938e+08 -7513.1235      1491.3588    
   4764000   149.9829      -1.330991e+08  -7518.5199      1491.373     
   4765000   149.99665     -1.3309902e+08 -7518.2138      1491.3872    
   4766000   150.00558     -1.3309893e+08 -7519.925       1491.4015    
   4767000   150.01185     -1.3309877e+08 -7519.1532      1491.4157    
   4768000   150.03897     -1.3309883e+08 -7525.7951      1491.43      
   4769000   150.00473     -1.3309879e+08 -7525.9186      1491.4442    
   4770000   149.99791     -1.3309867e+08 -7525.0925      1491.4585    
   4771000   149.99187     -1.3309853e+08 -7529.521       1491.4727    
   4772000   149.95822     -1.3309837e+08 -7535.5982      1491.4869    
   4773000   149.98219     -1.3309836e+08 -7539.6844      1491.5012    
   4774000   149.99691     -1.3309835e+08 -7536.2689      1491.5154    
   4775000   149.97578     -1.3309819e+08 -7532.6004      1491.5297    
   4776000   149.96705     -1.3309817e+08 -7534.4389      1491.5439    
   4777000   149.96483     -1.3309823e+08 -7540.2606      1491.5581    
   4778000   149.97398     -1.330981e+08  -7540.9787      1491.5724    
   4779000   149.97553     -1.3309778e+08 -7543.7419      1491.5866    
   4780000   149.98633     -1.330977e+08  -7546.6773      1491.6009    
   4781000   149.98865     -1.3309752e+08 -7543.5615      1491.6151    
   4782000   149.98742     -1.3309728e+08 -7546.6927      1491.6294    
   4783000   149.98503     -1.3309729e+08 -7551.6645      1491.6436    
   4784000   150.00752     -1.3309731e+08 -7553.1129      1491.6578    
   4785000   149.99121     -1.3309714e+08 -7555.0739      1491.6721    
   4786000   150.00063     -1.3309693e+08 -7560.1499      1491.6863    
   4787000   150.00243     -1.3309682e+08 -7562.6968      1491.7006    
   4788000   150.01812     -1.3309677e+08 -7564.0903      1491.7148    
   4789000   150.00426     -1.3309663e+08 -7563.0169      1491.7291    
   4790000   150.00628     -1.3309639e+08 -7564.7751      1491.7433    
   4791000   150.0041      -1.3309612e+08 -7564.525       1491.7575    
   4792000   150.00006     -1.3309615e+08 -7568.389       1491.7718    
   4793000   149.98991     -1.3309607e+08 -7569.1828      1491.786     
   4794000   149.9813      -1.3309614e+08 -7577.1775      1491.8003    
   4795000   150.00821     -1.3309616e+08 -7567.9081      1491.8145    
   4796000   149.98527     -1.330959e+08  -7569.6001      1491.8288    
   4797000   149.99575     -1.3309588e+08 -7569.6143      1491.843     
   4798000   149.99107     -1.3309578e+08 -7579.2462      1491.8572    
   4799000   149.96847     -1.3309565e+08 -7586.0219      1491.8715    
   4800000   150.00866     -1.330955e+08  -7589.0413      1491.8857    
   4801000   149.98997     -1.3309543e+08 -7582.749       1491.9       
   4802000   150.02065     -1.3309533e+08 -7579.1749      1491.9142    
