LAMMPS (23 Jun 2022)
KOKKOS mode is enabled (src/KOKKOS/kokkos.cpp:105)
  will use up to 4 GPU(s) per node
  using 1 OpenMP thread(s) per MPI task
package kokkos
package kokkos neigh half newton off
#LAMMPS input file

# ------------------------ INITIALIZATION ----------------------------
processors    * * *
units         metal
dimension    3
boundary    p    p    p
atom_style   charge
atom_modify map array sort 0 1

#--------------------------- LAMMPS Data File--------------------------

read_data    relaxed_step.lmp #reset_relaxed.lmp # model_4.lmp # pre_strained.lmp # High_sep_Cu_45.lmp # Cu_111_FR_45_MIN.lmp
Reading data file ...
  orthogonal box = (-314.8477 -522.43942 600) to (1109.3869 540.14923 1100)
  4 by 4 by 2 MPI processor grid
  reading atoms ...
  37948320 atoms
  reading velocities ...
  37948320 velocities
  read_data CPU = 135.174 seconds
#read_dump   dump.min_1862000.lammpstrj 1862000 x y z vx vy vz
variable  temp equal 500
variable  temp_init equal ${temp}*2
variable  temp_init equal 500*2
variable  sratex equal 5e-6 # in 1/ps (0.5 strain after 10ns)
# ------------------------ FORCE FIELDS ------------------------------
pair_style    eam/alloy
pair_coeff    * * Cu01.eam.alloy.txt Cu # Cu

#------------------------- SETTINGS ---------------------------------

#change_box        all x scale 1.015 remap units box

compute csym all centro/atom fcc
#compute peratom all pe/atom

# compute stresses
#compute       sf all stress/atom NULL

#-------------For Lorentz Forces from QEq----------------------------
# Apply forces
#variable qfx atomfile input_fx_new.txt
#variable qfy atomfile input_fy_new.txt
#variable qfz atomfile input_fz_new.txt
#variable qe atom  -(x*v_qfx+y*v_qfy+z*v_qfz)

#fix force_q1 all addforce v_qfx v_qfy v_qfz energy v_qe
#fix_modify force_q1 energy yes

#delete_atoms group exclude
#fix freez hold setforce 0 0 0
#fix_modify force_q2 energy yes
thermo 1000
thermo_style custom step temp pe press lx
thermo_modify flush yes
#min_style fire
#minimize 0.0 1e-4 100000 100000
#--------Thermal Relax---------------------------
velocity all create ${temp_init} 300 rot no dist gaussian
velocity all create 1000 300 rot no dist gaussian
timestep  0.002
fix 1 all langevin ${temp} ${temp} 5 300
fix 1 all langevin 500 ${temp} 5 300
fix 1 all langevin 500 500 5 300
fix ensemble all nve
run 50000
Neighbor list info ...
  update every 1 steps, delay 10 steps, check yes
  max neighbors/atom: 2000, page size: 100000
  master list distance cutoff = 7.506786
  ghost atom cutoff = 7.506786
  binsize = 7.506786, bins = 190 142 67
  2 neighbor lists, perpetual/occasional/extra = 1 1 0
  (1) pair eam/alloy/kk, perpetual
      attributes: half, newton off, kokkos_device
      pair build: half/bin/kk/device
      stencil: full/bin/3d
      bin: kk/device
  (2) compute centro/atom, occasional
      attributes: full, newton off
      pair build: full/bin/atomonly
      stencil: full/bin/3d
      bin: standard
Per MPI rank memory allocation (min/avg/max) = 419 | 460.3 | 502.1 Mbytes
   Step          Temp          PotEng         Press            Lx      
         0   1000          -1.3404495e+08  6581.1843      1424.2346    
      1000   500.40163     -1.3159731e+08  11009.929      1424.2346    
      2000   494.90813     -1.3156512e+08  4419.0976      1424.2346    
      3000   488.39497     -1.314993e+08  -971.21353      1424.2346    
      4000   494.91577     -1.3149539e+08  840.1323       1424.2346    
      5000   500.59031     -1.3151627e+08  3831.1133      1424.2346    
      6000   502.30294     -1.3153157e+08  6574.8048      1424.2346    
      7000   501.23629     -1.3153565e+08  6630.6375      1424.2346    
      8000   499.76215     -1.3152965e+08  5045.4721      1424.2346    
      9000   498.07404     -1.315169e+08   3522.1174      1424.2346    
     10000   498.10488     -1.3150825e+08  2920.5334      1424.2346    
     11000   499.64907     -1.3151103e+08  3705.1828      1424.2346    
     12000   500.61597     -1.3151634e+08  4549.9403      1424.2346    
     13000   500.9123      -1.3152155e+08  5211.917       1424.2346    
     14000   500.38291     -1.3152182e+08  4920.3785      1424.2346    
     15000   499.8139      -1.3152001e+08  4531.2784      1424.2346    
     16000   499.4527      -1.3151722e+08  4123.1416      1424.2346    
     17000   499.72636     -1.3151692e+08  4229.1741      1424.2346    
     18000   499.97315     -1.3151755e+08  4403.0118      1424.2346    
     19000   500.10903     -1.3151919e+08  4609.5844      1424.2346    
     20000   500.10168     -1.315198e+08   4619.6352      1424.2346    
     21000   499.93081     -1.3151918e+08  4530.3544      1424.2346    
     22000   499.77075     -1.3151823e+08  4418.0135      1424.2346    
     23000   499.78342     -1.3151764e+08  4364.099       1424.2346    
     24000   499.98676     -1.3151834e+08  4397.1618      1424.2346    
     25000   499.98085     -1.3151778e+08  4449.3323      1424.2346    
     26000   500.05646     -1.3151899e+08  4486.9599      1424.2346    
     27000   500.00452     -1.3151917e+08  4475.2314      1424.2346    
     28000   499.78578     -1.3151877e+08  4459.5028      1424.2346    
     29000   499.81433     -1.3151844e+08  4437.5225      1424.2346    
     30000   499.92217     -1.3151829e+08  4429.5289      1424.2346    
     31000   500.01299     -1.3151856e+08  4447.5442      1424.2346    
     32000   499.91221     -1.3151826e+08  4464.2012      1424.2346    
     33000   499.87227     -1.3151819e+08  4476.8814      1424.2346    
     34000   499.95353     -1.3151845e+08  4465.4962      1424.2346    
     35000   500.00125     -1.3151823e+08  4458.877       1424.2346    
     36000   500.0066      -1.3151806e+08  4458.2223      1424.2346    
     37000   500.04046     -1.3151834e+08  4445.3966      1424.2346    
     38000   499.95517     -1.3151823e+08  4452.4522      1424.2346    
     39000   499.90652     -1.31518e+08    4446.2817      1424.2346    
     40000   500.01935     -1.3151835e+08  4444.2531      1424.2346    
     41000   499.98006     -1.3151811e+08  4446.3609      1424.2346    
     42000   499.90189     -1.315181e+08   4446.7332      1424.2346    
     43000   499.94763     -1.3151816e+08  4446.5892      1424.2346    
     44000   500.00241     -1.3151842e+08  4447.0702      1424.2346    
     45000   500.04259     -1.3151857e+08  4461.0735      1424.2346    
     46000   499.90364     -1.3151817e+08  4468.9353      1424.2346    
     47000   499.85524     -1.3151828e+08  4468.4072      1424.2346    
     48000   499.95501     -1.3151812e+08  4449.5606      1424.2346    
     49000   499.93994     -1.3151777e+08  4448.0312      1424.2346    
     50000   499.96188     -1.3151791e+08  4438.1646      1424.2346    
Loop time of 702.694 on 32 procs for 50000 steps with 37948320 atoms

Performance: 12.296 ns/day, 1.952 hours/ns, 71.155 timesteps/s
72.5% CPU use with 32 MPI tasks x 1 OpenMP threads

MPI task timing breakdown:
Section |  min time  |  avg time  |  max time  |%varavg| %total
---------------------------------------------------------------
Pair    | 237.22     | 253.29     | 269.69     |  63.7 | 36.05
Neigh   | 32.292     | 47.917     | 63.456     | 139.1 |  6.82
Comm    | 44.129     | 59.681     | 75.532     | 192.6 |  8.49
Output  | 0.01099    | 0.67784    | 1.1191     |  38.0 |  0.10
Modify  | 196.31     | 272.44     | 345.57     | 432.4 | 38.77
Other   |            | 68.69      |            |       |  9.78

Nlocal:    1.18588e+06 ave 1.50407e+06 max      856318 min
Histogram: 16 0 0 0 0 0 0 0 0 16
Nghost:         184791 ave      216886 max      151946 min
Histogram: 16 0 0 0 0 0 0 0 0 16
Neighs:    8.61504e+07 ave 1.09268e+08 max 6.22133e+07 min
Histogram: 16 0 0 0 0 0 0 0 0 16
FullNghs:            0 ave           0 max           0 min
Histogram: 32 0 0 0 0 0 0 0 0 0

Total # of neighbors = 2.7568144e+09
Ave neighs/atom = 72.646546
Neighbor list builds = 1194
Dangerous builds = 0
unfix ensemble
write_data ${temp}_relaxed_config.lmp
write_data 500_relaxed_config.lmp
System init for write_data ...
#unfix freez
######################################
## NVT Langevin ##
#variable a loop 50
#label loop

#variable Ti equal ${temp}+($a-1)*4
#variable Tf equal ${temp}+$a*4
#reset_ids
#change_box all x scale ${eps} remap units box
fix        2 all deform 1 x erate ${sratex} units box remap x
fix        2 all deform 1 x erate 5e-06 units box remap x
#fix 1 all langevin ${temp} ${temp} 5 98

# Write dump file
#dump        shear all custom 500000 dump.min_*.lammpstrj id x y z # vx vy vz

#dump        defect all custom 100 dump.defect_*.lammpstrj id x y z c_csym
#dump_modify defect thresh c_csym <= 10 thresh c_csym > 4

fix         ensemble all nve
run 5000000
Per MPI rank memory allocation (min/avg/max) = 418.9 | 460.1 | 501.9 Mbytes
   Step          Temp          PotEng         Press            Lx      
     50000   499.96188     -1.3151791e+08  4438.1646      1424.2346    
     51000   499.85797     -1.3151838e+08  4434.3411      1424.2488    
     52000   499.91156     -1.3151865e+08  4441.6516      1424.2631    
     53000   499.93325     -1.3151879e+08  4448.5359      1424.2773    
     54000   499.9519      -1.3151825e+08  4455.3441      1424.2915    
     55000   500.01768     -1.3151837e+08  4443.8133      1424.3058    
     56000   499.86074     -1.3151822e+08  4437.409       1424.32      
     57000   500.02376     -1.3151803e+08  4425.0537      1424.3343    
     58000   500.02945     -1.3151804e+08  4422.1427      1424.3485    
     59000   500.01184     -1.3151792e+08  4421.9057      1424.3628    
     60000   500.11261     -1.3151818e+08  4421.0262      1424.377     
     61000   500.06285     -1.3151812e+08  4418.5557      1424.3912    
     62000   499.94296     -1.3151756e+08  4420.0379      1424.4055    
     63000   500.02256     -1.3151828e+08  4406.682       1424.4197    
     64000   500.04547     -1.3151803e+08  4404.2962      1424.434     
     65000   500.01664     -1.3151803e+08  4399.1938      1424.4482    
     66000   500.01006     -1.3151799e+08  4412.3978      1424.4625    
     67000   500.14723     -1.3151852e+08  4409.6751      1424.4767    
     68000   500.0083      -1.3151805e+08  4415.1828      1424.4909    
     69000   499.99583     -1.3151823e+08  4391.4434      1424.5052    
     70000   499.92143     -1.31518e+08    4394.9879      1424.5194    
     71000   500.03032     -1.3151859e+08  4383.3207      1424.5337    
     72000   499.97447     -1.3151854e+08  4391.6066      1424.5479    
     73000   499.88448     -1.3151852e+08  4378.9981      1424.5622    
     74000   499.88909     -1.3151837e+08  4386.0031      1424.5764    
     75000   499.97737     -1.3151873e+08  4373.3495      1424.5906    
     76000   499.94662     -1.3151862e+08  4382.0139      1424.6049    
     77000   499.87104     -1.3151813e+08  4384.5559      1424.6191    
     78000   499.90975     -1.3151827e+08  4378.0811      1424.6334    
     79000   499.91621     -1.3151815e+08  4363.0599      1424.6476    
     80000   499.95822     -1.3151816e+08  4360.3132      1424.6618    
     81000   499.9766      -1.3151817e+08  4355.7371      1424.6761    
     82000   499.83996     -1.315178e+08   4360.937       1424.6903    
     83000   499.9029      -1.3151824e+08  4362.8191      1424.7046    
     84000   499.94267     -1.3151825e+08  4357.6399      1424.7188    
     85000   500.04769     -1.3151799e+08  4360.187       1424.7331    
     86000   500.00031     -1.3151846e+08  4342.9492      1424.7473    
     87000   500.03328     -1.3151834e+08  4335.3728      1424.7615    
     88000   499.94034     -1.3151786e+08  4331.7476      1424.7758    
     89000   499.97855     -1.3151777e+08  4342.7115      1424.79      
     90000   500.04021     -1.3151785e+08  4351.2614      1424.8043    
     91000   499.96608     -1.3151774e+08  4355.9002      1424.8185    
     92000   499.93943     -1.3151797e+08  4347.0927      1424.8328    
     93000   499.9461      -1.3151806e+08  4339.0473      1424.847     
     94000   499.98711     -1.3151794e+08  4321.4407      1424.8612    
     95000   499.92675     -1.3151744e+08  4309.5166      1424.8755    
     96000   500.03196     -1.3151815e+08  4313.95        1424.8897    
     97000   499.96589     -1.3151806e+08  4316.5929      1424.904     
     98000   499.93108     -1.3151815e+08  4305.3104      1424.9182    
     99000   499.92015     -1.3151795e+08  4307.7775      1424.9325    
    100000   499.81638     -1.3151795e+08  4312.3677      1424.9467    
    101000   499.99437     -1.3151807e+08  4309.586       1424.9609    
    102000   500.00624     -1.3151773e+08  4300.5778      1424.9752    
    103000   500.03382     -1.3151813e+08  4297.285       1424.9894    
    104000   500.01631     -1.3151764e+08  4301.0952      1425.0037    
    105000   500.03469     -1.3151787e+08  4301.1777      1425.0179    
    106000   499.99163     -1.3151766e+08  4292.9611      1425.0322    
    107000   499.99054     -1.3151792e+08  4283.4504      1425.0464    
    108000   500.0898      -1.3151767e+08  4285.7375      1425.0606    
    109000   500.06192     -1.3151716e+08  4289.0996      1425.0749    
    110000   499.99641     -1.3151733e+08  4284.6758      1425.0891    
    111000   499.98294     -1.3151748e+08  4279.1373      1425.1034    
    112000   499.90741     -1.3151769e+08  4284.0736      1425.1176    
    113000   500.0104      -1.3151772e+08  4281.2243      1425.1318    
    114000   500.04875     -1.3151823e+08  4276.5495      1425.1461    
    115000   499.91671     -1.3151785e+08  4252.9949      1425.1603    
    116000   499.94117     -1.3151767e+08  4260.6595      1425.1746    
    117000   500.07584     -1.3151807e+08  4255.2724      1425.1888    
    118000   500.0214      -1.3151785e+08  4256.5122      1425.2031    
    119000   500.00347     -1.3151751e+08  4247.2849      1425.2173    
    120000   499.95321     -1.3151757e+08  4250.6299      1425.2315    
    121000   499.91576     -1.315176e+08   4252.2817      1425.2458    
    122000   500.03532     -1.3151753e+08  4246.2749      1425.26      
    123000   499.97024     -1.3151787e+08  4239.943       1425.2743    
    124000   500.02703     -1.3151787e+08  4229.9148      1425.2885    
    125000   500.15278     -1.3151799e+08  4244.2422      1425.3028    
    126000   500.08921     -1.3151802e+08  4234.3446      1425.317     
    127000   499.98795     -1.3151803e+08  4237.2252      1425.3312    
    128000   499.99653     -1.3151802e+08  4225.8699      1425.3455    
    129000   499.93727     -1.315179e+08   4224.714       1425.3597    
    130000   499.92444     -1.3151813e+08  4220.2511      1425.374     
    131000   499.89256     -1.3151834e+08  4230.5222      1425.3882    
    132000   499.96608     -1.3151842e+08  4215.941       1425.4025    
    133000   499.93088     -1.3151783e+08  4218.0569      1425.4167    
    134000   500.09789     -1.3151807e+08  4221.4115      1425.4309    
    135000   500.03958     -1.3151763e+08  4230.9726      1425.4452    
    136000   499.95727     -1.3151778e+08  4216.0913      1425.4594    
    137000   499.96385     -1.3151829e+08  4200.6652      1425.4737    
    138000   499.98767     -1.3151823e+08  4198.3773      1425.4879    
    139000   500.0367      -1.3151809e+08  4195.9405      1425.5021    
    140000   499.99689     -1.3151788e+08  4202.1849      1425.5164    
    141000   499.96211     -1.3151763e+08  4196.1411      1425.5306    
    142000   500.00532     -1.3151803e+08  4196.7169      1425.5449    
    143000   499.97307     -1.3151763e+08  4196.8181      1425.5591    
    144000   499.931       -1.3151832e+08  4184.2384      1425.5734    
    145000   499.97126     -1.3151861e+08  4183.9513      1425.5876    
    146000   499.94224     -1.3151824e+08  4169.9537      1425.6018    
    147000   499.94244     -1.3151828e+08  4175.3592      1425.6161    
    148000   499.97033     -1.3151819e+08  4164.1475      1425.6303    
    149000   500.01173     -1.3151805e+08  4176.0383      1425.6446    
    150000   499.97603     -1.3151789e+08  4178.6057      1425.6588    
    151000   499.99969     -1.3151799e+08  4179.7036      1425.6731    
    152000   500.03277     -1.3151785e+08  4161.265       1425.6873    
    153000   499.92988     -1.3151777e+08  4154.5581      1425.7015    
    154000   500.00935     -1.3151772e+08  4156.6152      1425.7158    
    155000   499.97903     -1.3151764e+08  4154.9396      1425.73      
    156000   499.97423     -1.3151738e+08  4143.2714      1425.7443    
    157000   499.86486     -1.3151695e+08  4134.2293      1425.7585    
    158000   499.99757     -1.315176e+08   4136.1823      1425.7728    
    159000   500.03177     -1.3151744e+08  4142.472       1425.787     
    160000   500.04455     -1.3151778e+08  4140.3065      1425.8012    
    161000   500.00194     -1.315179e+08   4139.1121      1425.8155    
    162000   499.95712     -1.315178e+08   4136.6665      1425.8297    
    163000   499.92217     -1.3151791e+08  4141.5173      1425.844     
    164000   499.86921     -1.315178e+08   4137.9131      1425.8582    
    165000   500.01027     -1.315181e+08   4134.3065      1425.8724    
    166000   499.98043     -1.3151738e+08  4135.456       1425.8867    
    167000   499.93273     -1.315174e+08   4114.0091      1425.9009    
    168000   499.87559     -1.3151724e+08  4118.978       1425.9152    
    169000   499.89178     -1.315175e+08   4109.1809      1425.9294    
    170000   499.97555     -1.3151789e+08  4116.1538      1425.9437    
    171000   499.95488     -1.3151799e+08  4109.7157      1425.9579    
    172000   500.03644     -1.315178e+08   4104.8109      1425.9721    
    173000   500.01096     -1.3151758e+08  4098.1561      1425.9864    
    174000   499.97496     -1.3151765e+08  4092.2077      1426.0006    
    175000   499.99248     -1.315178e+08   4100.7462      1426.0149    
    176000   499.97573     -1.315175e+08   4102.1441      1426.0291    
    177000   499.97244     -1.3151779e+08  4103.6427      1426.0434    
    178000   499.95815     -1.3151707e+08  4094.33        1426.0576    
    179000   499.99678     -1.315172e+08   4082.7262      1426.0718    
    180000   500.01361     -1.3151767e+08  4078.7885      1426.0861    
    181000   499.94072     -1.3151726e+08  4091.0059      1426.1003    
    182000   500.06095     -1.3151736e+08  4099.1315      1426.1146    
    183000   499.96814     -1.3151733e+08  4084.7592      1426.1288    
    184000   500.01917     -1.3151749e+08  4067.2756      1426.1431    
    185000   500.1012      -1.3151759e+08  4056.002       1426.1573    
    186000   500.03398     -1.3151748e+08  4057.3501      1426.1715    
    187000   499.92295     -1.315173e+08   4057.254       1426.1858    
    188000   500.07308     -1.3151782e+08  4062.6255      1426.2       
    189000   500.12018     -1.3151731e+08  4057.1759      1426.2143    
    190000   500.04388     -1.3151744e+08  4054.3277      1426.2285    
    191000   500.06937     -1.3151766e+08  4048.5143      1426.2428    
    192000   499.99615     -1.3151746e+08  4039.9509      1426.257     
    193000   500.02177     -1.3151711e+08  4046.1733      1426.2712    
    194000   500.05017     -1.3151745e+08  4047.4283      1426.2855    
    195000   499.91456     -1.3151675e+08  4045.9937      1426.2997    
    196000   500.05726     -1.3151803e+08  4041.4492      1426.314     
    197000   499.92778     -1.3151761e+08  4018.6068      1426.3282    
    198000   499.95987     -1.3151751e+08  4038.0229      1426.3424    
    199000   499.95472     -1.315175e+08   4034.0052      1426.3567    
    200000   499.96668     -1.3151766e+08  4041.6247      1426.3709    
    201000   499.99515     -1.3151761e+08  4024.5331      1426.3852    
    202000   500.00696     -1.3151776e+08  4016.3922      1426.3994    
    203000   499.97965     -1.3151726e+08  4008.2052      1426.4137    
    204000   500.05098     -1.3151664e+08  4020.7297      1426.4279    
    205000   500.0358      -1.3151695e+08  4005.5848      1426.4421    
    206000   500.0699      -1.3151737e+08  4012.6625      1426.4564    
    207000   500.04777     -1.3151735e+08  4007.7845      1426.4706    
    208000   500.07204     -1.315175e+08   4009.3546      1426.4849    
    209000   500.0483      -1.3151723e+08  4009.4112      1426.4991    
    210000   499.98469     -1.3151694e+08  4008.8862      1426.5134    
    211000   500.07225     -1.3151725e+08  3997.5824      1426.5276    
    212000   500.078       -1.3151712e+08  3994.5313      1426.5418    
    213000   500.10325     -1.3151731e+08  3993.4959      1426.5561    
    214000   500.08529     -1.3151732e+08  3988.4972      1426.5703    
    215000   500.01982     -1.3151674e+08  3988.1059      1426.5846    
    216000   500.07483     -1.3151695e+08  3971.6925      1426.5988    
    217000   499.93582     -1.3151702e+08  3956.4057      1426.6131    
    218000   499.99697     -1.3151713e+08  3965.8756      1426.6273    
    219000   500.01446     -1.3151678e+08  3959.0975      1426.6415    
    220000   499.97803     -1.3151677e+08  3971.9662      1426.6558    
    221000   499.92559     -1.3151728e+08  3971.9611      1426.67      
    222000   499.94609     -1.3151743e+08  3975.9369      1426.6843    
    223000   499.97719     -1.3151718e+08  3972.8431      1426.6985    
    224000   500.03748     -1.3151766e+08  3965.911       1426.7127    
    225000   500.00578     -1.3151703e+08  3961.5201      1426.727     
    226000   499.98235     -1.3151733e+08  3954.6053      1426.7412    
    227000   499.96947     -1.3151702e+08  3941.78        1426.7555    
    228000   500.00671     -1.3151704e+08  3945.2481      1426.7697    
    229000   499.97165     -1.3151668e+08  3943.4344      1426.784     
    230000   500.04922     -1.315177e+08   3948.7688      1426.7982    
    231000   500.0469      -1.3151713e+08  3945.5138      1426.8124    
    232000   500.08601     -1.3151721e+08  3946.1626      1426.8267    
    233000   500.00018     -1.3151649e+08  3929.7364      1426.8409    
    234000   500.06009     -1.3151732e+08  3937.6077      1426.8552    
    235000   500.06037     -1.3151709e+08  3919.8284      1426.8694    
    236000   499.90652     -1.3151678e+08  3915.9708      1426.8837    
    237000   499.87828     -1.3151677e+08  3900.7746      1426.8979    
    238000   499.81746     -1.3151678e+08  3913.011       1426.9121    
    239000   499.99758     -1.3151722e+08  3916.1229      1426.9264    
    240000   500.04133     -1.3151736e+08  3916.1392      1426.9406    
    241000   499.9151      -1.315168e+08   3918.9557      1426.9549    
    242000   500.05962     -1.3151784e+08  3920.0409      1426.9691    
    243000   499.97784     -1.3151736e+08  3919.3728      1426.9834    
    244000   499.90831     -1.3151668e+08  3913.4854      1426.9976    
    245000   500.08373     -1.3151664e+08  3901.8525      1427.0118    
    246000   500.11823     -1.3151767e+08  3903.2965      1427.0261    
    247000   500.0098      -1.3151699e+08  3903.9027      1427.0403    
    248000   499.9006      -1.3151669e+08  3897.6528      1427.0546    
    249000   499.99665     -1.3151781e+08  3885.5031      1427.0688    
    250000   500.02112     -1.3151751e+08  3885.4681      1427.083     
    251000   499.87536     -1.3151699e+08  3897.3116      1427.0973    
    252000   500.03318     -1.3151677e+08  3891.7498      1427.1115    
    253000   500.02344     -1.3151691e+08  3887.6384      1427.1258    
    254000   499.96927     -1.3151698e+08  3864.9829      1427.14      
    255000   499.85356     -1.3151642e+08  3869.3105      1427.1543    
    256000   499.89544     -1.3151698e+08  3865.3869      1427.1685    
    257000   499.90849     -1.3151726e+08  3874.4239      1427.1827    
    258000   499.91233     -1.3151737e+08  3869.4869      1427.197     
    259000   499.95025     -1.3151736e+08  3871.778       1427.2112    
    260000   499.89944     -1.315172e+08   3867.8159      1427.2255    
    261000   499.88367     -1.315165e+08   3862.7452      1427.2397    
    262000   500.00893     -1.3151668e+08  3854.4554      1427.254     
    263000   500.05648     -1.3151616e+08  3857.6658      1427.2682    
    264000   500.09021     -1.3151662e+08  3857.9571      1427.2824    
    265000   499.98337     -1.3151659e+08  3854.5927      1427.2967    
    266000   500.03721     -1.3151697e+08  3844.0932      1427.3109    
    267000   500.05009     -1.3151722e+08  3838.1188      1427.3252    
    268000   499.95235     -1.3151744e+08  3834.8526      1427.3394    
    269000   499.83208     -1.3151736e+08  3827.6009      1427.3537    
    270000   499.8961      -1.3151696e+08  3823.8904      1427.3679    
    271000   500.0042      -1.3151646e+08  3825.8068      1427.3821    
    272000   500.16463     -1.3151664e+08  3839.5013      1427.3964    
    273000   500.10218     -1.3151626e+08  3832.3247      1427.4106    
    274000   500.07863     -1.315171e+08   3817.0182      1427.4249    
    275000   499.96477     -1.3151674e+08  3814.5985      1427.4391    
    276000   499.90162     -1.3151671e+08  3804.9335      1427.4533    
    277000   499.90312     -1.3151671e+08  3814.4378      1427.4676    
    278000   499.89651     -1.3151645e+08  3799.5475      1427.4818    
    279000   500.05858     -1.3151678e+08  3803.1469      1427.4961    
    280000   499.91746     -1.3151622e+08  3812.5699      1427.5103    
    281000   500.04399     -1.3151655e+08  3821.5548      1427.5246    
    282000   500.17447     -1.31517e+08    3805.6561      1427.5388    
    283000   500.07024     -1.3151692e+08  3784.7286      1427.553     
    284000   500.03281     -1.3151599e+08  3782.8137      1427.5673    
    285000   499.97503     -1.3151603e+08  3790.9493      1427.5815    
    286000   500.07439     -1.3151728e+08  3793.6328      1427.5958    
    287000   500.01265     -1.3151639e+08  3797.4281      1427.61      
    288000   500.00639     -1.3151684e+08  3794.7695      1427.6243    
    289000   500.09921     -1.3151753e+08  3793.8268      1427.6385    
    290000   500.01239     -1.3151689e+08  3793.3637      1427.6527    
    291000   499.94451     -1.315164e+08   3779.9726      1427.667     
    292000   499.99578     -1.3151639e+08  3767.2468      1427.6812    
    293000   499.99196     -1.3151633e+08  3773.1642      1427.6955    
    294000   500.06633     -1.3151639e+08  3777.5435      1427.7097    
    295000   500.06296     -1.315169e+08   3758.8239      1427.724     
    296000   500.06316     -1.3151653e+08  3756.3082      1427.7382    
    297000   500.03149     -1.3151651e+08  3745.6651      1427.7524    
    298000   499.92281     -1.315158e+08   3750.0699      1427.7667    
    299000   500.09364     -1.315167e+08   3750.1309      1427.7809    
    300000   500.02108     -1.315167e+08   3743.412       1427.7952    
    301000   499.97392     -1.3151628e+08  3758.0065      1427.8094    
    302000   500.07456     -1.3151674e+08  3748.0151      1427.8237    
    303000   499.93695     -1.3151663e+08  3742.572       1427.8379    
    304000   499.95306     -1.3151639e+08  3737.5431      1427.8521    
    305000   499.99093     -1.3151691e+08  3735.4684      1427.8664    
    306000   500.00058     -1.3151684e+08  3721.3519      1427.8806    
    307000   499.94556     -1.3151724e+08  3718.2249      1427.8949    
    308000   500.03239     -1.3151697e+08  3730.1946      1427.9091    
    309000   500.01503     -1.3151673e+08  3723.3306      1427.9233    
    310000   500.02858     -1.3151666e+08  3715.3654      1427.9376    
    311000   500.02843     -1.3151671e+08  3703.6429      1427.9518    
    312000   500.02434     -1.3151656e+08  3712.1265      1427.9661    
    313000   500.11395     -1.3151612e+08  3727.194       1427.9803    
    314000   500.09222     -1.3151621e+08  3709.5123      1427.9946    
    315000   500.10836     -1.315158e+08   3705.1291      1428.0088    
    316000   500.06902     -1.3151576e+08  3701.6542      1428.023     
    317000   500.03828     -1.3151552e+08  3692.2824      1428.0373    
    318000   500.08495     -1.3151604e+08  3694.2308      1428.0515    
    319000   500.03366     -1.3151548e+08  3702.547       1428.0658    
    320000   500.12452     -1.3151587e+08  3702.2593      1428.08      
    321000   500.18462     -1.3151609e+08  3702.0045      1428.0943    
    322000   500.02284     -1.3151542e+08  3688.4414      1428.1085    
    323000   500.13158     -1.3151591e+08  3672.0819      1428.1227    
    324000   500.05303     -1.3151622e+08  3663.424       1428.137     
    325000   500.11178     -1.3151586e+08  3661.1903      1428.1512    
    326000   500.07217     -1.3151549e+08  3679.5193      1428.1655    
    327000   500.02801     -1.3151616e+08  3668.7168      1428.1797    
    328000   500.03558     -1.3151627e+08  3661.3664      1428.194     
    329000   499.87497     -1.3151565e+08  3663.9186      1428.2082    
    330000   500.0822      -1.315167e+08   3680.3572      1428.2224    
    331000   499.98773     -1.3151601e+08  3678.6238      1428.2367    
    332000   500.04916     -1.3151651e+08  3668.7843      1428.2509    
    333000   500.00331     -1.3151617e+08  3647.9319      1428.2652    
    334000   499.92175     -1.3151572e+08  3642.2147      1428.2794    
    335000   499.92828     -1.3151604e+08  3638.3286      1428.2936    
    336000   500.00166     -1.3151665e+08  3648.2448      1428.3079    
    337000   499.92617     -1.3151605e+08  3647.6709      1428.3221    
    338000   499.86224     -1.3151609e+08  3638.7262      1428.3364    
    339000   499.9586      -1.315157e+08   3632.4671      1428.3506    
    340000   500.09954     -1.3151597e+08  3632.2797      1428.3649    
    341000   499.9662      -1.3151627e+08  3632.0473      1428.3791    
    342000   499.98535     -1.3151617e+08  3629.9089      1428.3933    
    343000   499.92195     -1.3151599e+08  3638.5268      1428.4076    
    344000   500.04989     -1.3151662e+08  3637.2371      1428.4218    
    345000   499.92166     -1.3151632e+08  3635.5835      1428.4361    
    346000   499.95849     -1.3151678e+08  3616.2506      1428.4503    
    347000   499.86621     -1.3151623e+08  3601.7696      1428.4646    
    348000   499.83468     -1.3151593e+08  3603.4683      1428.4788    
    349000   499.91902     -1.3151589e+08  3600.1027      1428.493     
    350000   499.97381     -1.3151598e+08  3608.7084      1428.5073    
    351000   499.96574     -1.3151614e+08  3613.7872      1428.5215    
    352000   499.9619      -1.3151604e+08  3617.0305      1428.5358    
    353000   499.92757     -1.3151576e+08  3596.0879      1428.55      
    354000   499.98321     -1.3151607e+08  3579.4661      1428.5643    
    355000   499.96887     -1.3151605e+08  3576.2508      1428.5785    
    356000   499.94968     -1.315159e+08   3587.4525      1428.5927    
    357000   500.089       -1.3151604e+08  3597.6562      1428.607     
    358000   500.10407     -1.3151597e+08  3614.7439      1428.6212    
    359000   500.09838     -1.3151595e+08  3601.018       1428.6355    
    360000   499.98763     -1.3151583e+08  3583.2663      1428.6497    
    361000   500.00161     -1.315162e+08   3565.3675      1428.6639    
    362000   499.97364     -1.3151591e+08  3569.5966      1428.6782    
    363000   499.9874      -1.315161e+08   3565.0105      1428.6924    
    364000   499.93583     -1.3151602e+08  3567.6967      1428.7067    
    365000   499.9952      -1.3151612e+08  3561.8584      1428.7209    
    366000   499.93175     -1.3151658e+08  3560.8012      1428.7352    
    367000   499.90831     -1.3151562e+08  3559.201       1428.7494    
    368000   500.04667     -1.3151617e+08  3551.2295      1428.7636    
    369000   499.97245     -1.3151538e+08  3551.7835      1428.7779    
    370000   499.95678     -1.3151519e+08  3552.5881      1428.7921    
    371000   500.02487     -1.3151572e+08  3561.7826      1428.8064    
    372000   500.00714     -1.3151619e+08  3552.0012      1428.8206    
    373000   499.91066     -1.3151562e+08  3552.4329      1428.8349    
    374000   500.06372     -1.3151567e+08  3544.7042      1428.8491    
    375000   499.98329     -1.3151572e+08  3551.8657      1428.8633    
    376000   499.9914      -1.315158e+08   3549.7389      1428.8776    
    377000   499.96217     -1.3151553e+08  3531.3759      1428.8918    
    378000   499.96384     -1.3151501e+08  3518.6091      1428.9061    
    379000   500.05436     -1.3151573e+08  3518.5145      1428.9203    
    380000   499.94035     -1.3151559e+08  3530.588       1428.9346    
    381000   499.97555     -1.3151503e+08  3532.4564      1428.9488    
    382000   499.90192     -1.315153e+08   3520.2267      1428.963     
    383000   499.97518     -1.3151546e+08  3516.6972      1428.9773    
    384000   500.00631     -1.315152e+08   3502.6177      1428.9915    
    385000   500.05798     -1.3151518e+08  3508.2368      1429.0058    
    386000   499.97375     -1.3151501e+08  3510.8004      1429.02      
    387000   500.0173      -1.3151523e+08  3511.5657      1429.0343    
    388000   500.01205     -1.315154e+08   3505.7345      1429.0485    
    389000   500.0203      -1.315152e+08   3495.8741      1429.0627    
    390000   500.02337     -1.3151515e+08  3494.9427      1429.077     
    391000   499.98686     -1.3151533e+08  3498.8189      1429.0912    
    392000   500.0017      -1.3151509e+08  3501.6361      1429.1055    
    393000   499.85907     -1.3151488e+08  3496.8675      1429.1197    
    394000   500.11588     -1.3151598e+08  3485.5413      1429.1339    
    395000   499.99484     -1.315155e+08   3487.3531      1429.1482    
    396000   500.09143     -1.3151563e+08  3475.2415      1429.1624    
    397000   499.98324     -1.3151506e+08  3478.175       1429.1767    
    398000   500.03942     -1.3151535e+08  3480.85        1429.1909    
    399000   500.00602     -1.3151503e+08  3477.2767      1429.2052    
    400000   500.10451     -1.3151531e+08  3487.3924      1429.2194    
    401000   500.02861     -1.3151495e+08  3475.31        1429.2336    
    402000   499.99451     -1.3151505e+08  3455.1371      1429.2479    
    403000   500.01069     -1.3151519e+08  3457.2545      1429.2621    
    404000   499.99403     -1.3151582e+08  3454.3819      1429.2764    
    405000   499.92205     -1.315155e+08   3462.512       1429.2906    
    406000   499.94419     -1.31516e+08    3461.6168      1429.3049    
    407000   499.94121     -1.3151558e+08  3464.9678      1429.3191    
    408000   499.86457     -1.3151454e+08  3448.9106      1429.3333    
    409000   499.8771      -1.3151503e+08  3428.2719      1429.3476    
    410000   500.01847     -1.3151535e+08  3434.3017      1429.3618    
    411000   500.04687     -1.3151477e+08  3445.8812      1429.3761    
    412000   500.12024     -1.3151492e+08  3448.7778      1429.3903    
    413000   499.95995     -1.3151475e+08  3438.1487      1429.4046    
    414000   499.88183     -1.3151534e+08  3429.1236      1429.4188    
    415000   499.9532      -1.3151536e+08  3424.7701      1429.433     
    416000   499.84905     -1.3151529e+08  3425.3503      1429.4473    
    417000   499.83104     -1.3151471e+08  3436.3243      1429.4615    
    418000   499.99633     -1.3151523e+08  3426.9779      1429.4758    
    419000   500.01188     -1.3151489e+08  3426.1518      1429.49      
    420000   500.02024     -1.3151504e+08  3415.5085      1429.5042    
    421000   500.05101     -1.315156e+08   3407.0217      1429.5185    
    422000   500.01449     -1.3151486e+08  3399.3739      1429.5327    
    423000   499.92092     -1.3151528e+08  3399.6948      1429.547     
    424000   499.91797     -1.3151461e+08  3398.4535      1429.5612    
    425000   499.97135     -1.3151445e+08  3403.0684      1429.5755    
    426000   499.97083     -1.3151414e+08  3405.7013      1429.5897    
    427000   500.03969     -1.3151485e+08  3393.3912      1429.6039    
    428000   500.01819     -1.315145e+08   3394.8374      1429.6182    
    429000   499.96483     -1.3151474e+08  3406.4963      1429.6324    
    430000   500.09513     -1.3151515e+08  3399.1101      1429.6467    
    431000   500.12295     -1.3151479e+08  3398.1501      1429.6609    
    432000   500.05825     -1.3151475e+08  3383.0165      1429.6752    
    433000   499.91242     -1.3151453e+08  3378.9916      1429.6894    
    434000   500.00387     -1.3151494e+08  3375.7082      1429.7036    
    435000   499.99351     -1.3151488e+08  3372.03        1429.7179    
    436000   499.84368     -1.3151455e+08  3372.0781      1429.7321    
    437000   500.03984     -1.3151528e+08  3366.711       1429.7464    
    438000   499.98061     -1.3151464e+08  3359.4507      1429.7606    
    439000   500.12961     -1.3151441e+08  3357.4276      1429.7749    
    440000   500.06118     -1.3151475e+08  3347.6895      1429.7891    
    441000   500.04084     -1.3151492e+08  3356.1565      1429.8033    
    442000   500.06461     -1.3151506e+08  3358.877       1429.8176    
    443000   499.89732     -1.3151464e+08  3364.1153      1429.8318    
    444000   499.9094      -1.3151498e+08  3348.0734      1429.8461    
    445000   499.92336     -1.3151495e+08  3350.6514      1429.8603    
    446000   500.00343     -1.3151468e+08  3340.3906      1429.8745    
    447000   499.99764     -1.3151477e+08  3343.004       1429.8888    
    448000   500.00139     -1.3151459e+08  3343.2537      1429.903     
    449000   499.96931     -1.3151446e+08  3334.9693      1429.9173    
    450000   499.97412     -1.315143e+08   3333.5192      1429.9315    
    451000   499.94495     -1.3151453e+08  3318.4782      1429.9458    
    452000   500.06919     -1.3151411e+08  3335.2975      1429.96      
    453000   499.96645     -1.3151439e+08  3337.0098      1429.9742    
    454000   500.09683     -1.3151475e+08  3337.9938      1429.9885    
    455000   500.02806     -1.3151452e+08  3330.5559      1430.0027    
    456000   499.9948      -1.3151472e+08  3329.031       1430.017     
    457000   499.98349     -1.315141e+08   3311.5873      1430.0312    
    458000   499.97862     -1.3151369e+08  3308.5585      1430.0455    
    459000   499.91169     -1.3151358e+08  3302.1663      1430.0597    
    460000   499.96017     -1.3151361e+08  3309.4645      1430.0739    
    461000   500.02629     -1.3151413e+08  3306.7151      1430.0882    
    462000   500.00096     -1.3151446e+08  3297.2269      1430.1024    
    463000   499.86876     -1.3151426e+08  3296.8585      1430.1167    
    464000   499.80291     -1.315145e+08   3297.9439      1430.1309    
    465000   500.00487     -1.3151495e+08  3295.4384      1430.1452    
    466000   499.9763      -1.3151437e+08  3298.1998      1430.1594    
    467000   500.01517     -1.315141e+08   3293.7207      1430.1736    
    468000   499.99921     -1.3151372e+08  3291.7009      1430.1879    
    469000   499.96066     -1.3151381e+08  3287.7616      1430.2021    
    470000   499.91857     -1.3151408e+08  3287.4885      1430.2164    
    471000   500.03815     -1.3151421e+08  3286.1599      1430.2306    
    472000   500.01258     -1.3151424e+08  3269.9349      1430.2448    
    473000   500.03829     -1.3151463e+08  3268.1963      1430.2591    
    474000   499.94107     -1.3151387e+08  3259.6309      1430.2733    
    475000   499.95275     -1.3151384e+08  3258.2034      1430.2876    
    476000   500.18985     -1.3151389e+08  3267.7541      1430.3018    
    477000   500.07079     -1.3151413e+08  3264.7559      1430.3161    
    478000   500.0365      -1.3151398e+08  3271.9422      1430.3303    
    479000   500.0054      -1.3151432e+08  3253.4306      1430.3445    
    480000   499.97298     -1.3151425e+08  3255.8445      1430.3588    
    481000   499.92746     -1.3151455e+08  3241.764       1430.373     
    482000   499.97052     -1.3151467e+08  3250.5673      1430.3873    
    483000   499.98992     -1.3151501e+08  3249.676       1430.4015    
    484000   499.89467     -1.3151481e+08  3256.1279      1430.4158    
    485000   499.93636     -1.3151474e+08  3232.5966      1430.43      
    486000   499.9975      -1.3151422e+08  3232.9185      1430.4442    
    487000   500.07781     -1.3151367e+08  3229.1154      1430.4585    
    488000   500.07313     -1.3151375e+08  3230.0367      1430.4727    
    489000   500.03269     -1.3151342e+08  3234.1708      1430.487     
    490000   500.01535     -1.315137e+08   3222.6805      1430.5012    
    491000   499.89302     -1.3151359e+08  3216.9895      1430.5155    
    492000   499.94118     -1.315141e+08   3208.0748      1430.5297    
    493000   499.93418     -1.3151378e+08  3214.6426      1430.5439    
    494000   500.03142     -1.3151422e+08  3224.3665      1430.5582    
    495000   499.91988     -1.3151397e+08  3221.427       1430.5724    
    496000   499.93014     -1.3151402e+08  3206.9543      1430.5867    
    497000   499.86403     -1.3151329e+08  3198.6072      1430.6009    
    498000   500.02518     -1.3151354e+08  3201.5447      1430.6152    
    499000   499.94563     -1.3151344e+08  3202.4646      1430.6294    
    500000   500.2106      -1.3151475e+08  3196.3723      1430.6436    
    501000   500.00015     -1.3151366e+08  3192.0909      1430.6579    
    502000   499.93874     -1.3151303e+08  3196.0478      1430.6721    
    503000   499.99227     -1.3151322e+08  3188.2127      1430.6864    
    504000   499.96671     -1.3151345e+08  3200.6089      1430.7006    
    505000   499.99735     -1.3151375e+08  3189.293       1430.7148    
    506000   499.96233     -1.3151384e+08  3190.4073      1430.7291    
    507000   500.0132      -1.3151372e+08  3174.968       1430.7433    
    508000   499.89036     -1.3151351e+08  3186.1907      1430.7576    
    509000   499.94594     -1.3151346e+08  3178.4485      1430.7718    
    510000   499.98839     -1.3151383e+08  3169.8409      1430.7861    
    511000   499.89984     -1.3151356e+08  3162.7366      1430.8003    
    512000   499.94418     -1.3151386e+08  3156.1761      1430.8145    
    513000   499.87637     -1.3151346e+08  3159.3151      1430.8288    
    514000   499.98607     -1.3151352e+08  3153.7118      1430.843     
    515000   499.94256     -1.3151319e+08  3154.885       1430.8573    
    516000   499.96771     -1.3151339e+08  3155.6332      1430.8715    
    517000   500.10007     -1.3151325e+08  3151.2277      1430.8858    
    518000   500.08394     -1.3151299e+08  3138.8925      1430.9       
    519000   500.14304     -1.3151328e+08  3135.9924      1430.9142    
    520000   500.02846     -1.3151297e+08  3139.5878      1430.9285    
    521000   500.05016     -1.3151306e+08  3145.7121      1430.9427    
    522000   500.00604     -1.3151303e+08  3147.1494      1430.957     
    523000   500.09117     -1.3151328e+08  3133.0163      1430.9712    
    524000   499.8775      -1.315127e+08   3132.1134      1430.9855    
    525000   499.9855      -1.3151304e+08  3124.8595      1430.9997    
    526000   500.04729     -1.3151341e+08  3114.0655      1431.0139    
    527000   500.00959     -1.3151358e+08  3116.9857      1431.0282    
    528000   499.97611     -1.3151337e+08  3122.3267      1431.0424    
    529000   500.04672     -1.3151342e+08  3120.3624      1431.0567    
    530000   500.0675      -1.3151318e+08  3104.3481      1431.0709    
    531000   499.93336     -1.3151321e+08  3100.1335      1431.0851    
    532000   499.97977     -1.3151362e+08  3106.3439      1431.0994    
    533000   499.93758     -1.3151326e+08  3110.5632      1431.1136    
    534000   500.0614      -1.3151386e+08  3105.0636      1431.1279    
    535000   499.97887     -1.3151346e+08  3102.7566      1431.1421    
    536000   499.97285     -1.3151342e+08  3112.7266      1431.1564    
    537000   499.97423     -1.3151345e+08  3103.7039      1431.1706    
    538000   499.96457     -1.3151339e+08  3105.268       1431.1848    
    539000   500.01122     -1.3151357e+08  3104.0189      1431.1991    
    540000   499.93378     -1.3151321e+08  3098.2763      1431.2133    
    541000   499.99983     -1.3151306e+08  3084.6128      1431.2276    
    542000   499.99088     -1.3151282e+08  3078.7035      1431.2418    
    543000   500.0212      -1.3151276e+08  3077.3266      1431.2561    
    544000   500.03004     -1.3151305e+08  3075.7295      1431.2703    
    545000   499.99846     -1.3151284e+08  3078.3089      1431.2845    
    546000   500.06104     -1.3151282e+08  3073.2005      1431.2988    
    547000   499.99782     -1.3151281e+08  3058.8137      1431.313     
    548000   500.04565     -1.3151259e+08  3063.2304      1431.3273    
    549000   500.06997     -1.3151263e+08  3065.0923      1431.3415    
    550000   500.03832     -1.315124e+08   3063.1333      1431.3558    
    551000   500.03599     -1.3151305e+08  3058.0816      1431.37      
    552000   499.98537     -1.3151276e+08  3055.4045      1431.3842    
    553000   499.96736     -1.3151267e+08  3046.1841      1431.3985    
    554000   499.96702     -1.31513e+08    3043.3931      1431.4127    
    555000   500.08658     -1.3151302e+08  3050.2261      1431.427     
    556000   499.95821     -1.3151301e+08  3039.6219      1431.4412    
    557000   499.96116     -1.3151275e+08  3048.9385      1431.4554    
    558000   499.90564     -1.3151262e+08  3042.9015      1431.4697    
    559000   499.97459     -1.3151241e+08  3046.0727      1431.4839    
    560000   499.9908      -1.3151272e+08  3042.9994      1431.4982    
    561000   499.97253     -1.315125e+08   3037.8228      1431.5124    
    562000   500.02363     -1.3151303e+08  3028.2699      1431.5267    
    563000   499.93885     -1.3151245e+08  3013.5842      1431.5409    
    564000   499.90625     -1.3151248e+08  3013.1218      1431.5551    
    565000   499.9578      -1.3151294e+08  3017.049       1431.5694    
    566000   499.99687     -1.3151259e+08  3031.3104      1431.5836    
    567000   500.02329     -1.315128e+08   3022.5394      1431.5979    
    568000   499.91769     -1.3151256e+08  3018.6335      1431.6121    
    569000   499.9038      -1.3151205e+08  3013.5137      1431.6264    
    570000   499.952       -1.315126e+08   3000.8299      1431.6406    
    571000   499.92009     -1.3151263e+08  2999.638       1431.6548    
    572000   499.88226     -1.3151218e+08  3009.7346      1431.6691    
    573000   499.98519     -1.3151236e+08  3006.4502      1431.6833    
    574000   499.97668     -1.3151219e+08  3004.3163      1431.6976    
    575000   499.96282     -1.3151183e+08  3006.0855      1431.7118    
    576000   500.03815     -1.3151215e+08  2999.6006      1431.7261    
    577000   500.04237     -1.315124e+08   2995.7505      1431.7403    
    578000   500.0268      -1.3151229e+08  2979.1234      1431.7545    
    579000   500.08254     -1.3151182e+08  2977.4354      1431.7688    
    580000   500.05278     -1.315126e+08   2966.3624      1431.783     
    581000   499.99447     -1.3151201e+08  2967.7971      1431.7973    
    582000   500.02403     -1.3151212e+08  2970.4363      1431.8115    
    583000   499.95491     -1.3151163e+08  2971.8495      1431.8257    
    584000   500.06336     -1.3151208e+08  2974.4329      1431.84      
    585000   500.07509     -1.3151169e+08  2970.277       1431.8542    
    586000   500.14263     -1.3151171e+08  2959.5938      1431.8685    
    587000   500.09945     -1.3151164e+08  2960.5282      1431.8827    
    588000   500.09551     -1.3151178e+08  2961.4939      1431.897     
    589000   500.06208     -1.3151166e+08  2960.6508      1431.9112    
    590000   500.12054     -1.3151244e+08  2956.9686      1431.9254    
    591000   500.04908     -1.3151205e+08  2955.9608      1431.9397    
    592000   499.99917     -1.3151167e+08  2955.6131      1431.9539    
    593000   499.98949     -1.3151153e+08  2954.7928      1431.9682    
    594000   500.07158     -1.3151168e+08  2940.2207      1431.9824    
    595000   500.00624     -1.3151159e+08  2928.7267      1431.9967    
    596000   500.0729      -1.3151183e+08  2940.9214      1432.0109    
    597000   499.97671     -1.3151217e+08  2944.1996      1432.0251    
    598000   499.98362     -1.3151182e+08  2948.3448      1432.0394    
    599000   500.07971     -1.3151186e+08  2940.9775      1432.0536    
    600000   499.96527     -1.3151159e+08  2935.0048      1432.0679    
    601000   500.04559     -1.3151143e+08  2924.2523      1432.0821    
    602000   500.0407      -1.3151172e+08  2921.8137      1432.0964    
    603000   499.9835      -1.3151208e+08  2916.5314      1432.1106    
    604000   499.96966     -1.315117e+08   2921.4703      1432.1248    
    605000   500.02501     -1.3151183e+08  2911.1231      1432.1391    
    606000   499.97233     -1.3151187e+08  2897.6383      1432.1533    
    607000   500.07453     -1.3151172e+08  2893.6758      1432.1676    
    608000   499.92835     -1.315116e+08   2905.6019      1432.1818    
    609000   499.95307     -1.3151194e+08  2916.8012      1432.1961    
    610000   499.99189     -1.3151197e+08  2923.5821      1432.2103    
    611000   499.95297     -1.3151191e+08  2906.8718      1432.2245    
    612000   499.83842     -1.3151156e+08  2901.9837      1432.2388    
    613000   499.84115     -1.3151199e+08  2882.794       1432.253     
    614000   500.01603     -1.3151217e+08  2882.1607      1432.2673    
    615000   499.90829     -1.3151186e+08  2889.4217      1432.2815    
    616000   499.9344      -1.315114e+08   2877.1474      1432.2957    
    617000   499.93929     -1.31511e+08    2883.561       1432.31      
    618000   499.91779     -1.3151098e+08  2879.0337      1432.3242    
    619000   499.89634     -1.3151107e+08  2871.8012      1432.3385    
    620000   499.95365     -1.31512e+08    2862.1779      1432.3527    
    621000   499.9144      -1.3151159e+08  2858.4191      1432.367     
    622000   499.90638     -1.3151165e+08  2866.3197      1432.3812    
    623000   499.91171     -1.315112e+08   2868.4906      1432.3954    
    624000   499.99396     -1.3151132e+08  2865.9815      1432.4097    
    625000   499.93719     -1.3151148e+08  2851.6684      1432.4239    
    626000   499.98323     -1.3151186e+08  2849.6094      1432.4382    
    627000   499.84908     -1.3151131e+08  2847.6972      1432.4524    
    628000   499.86617     -1.3151081e+08  2861.0435      1432.4667    
    629000   499.99931     -1.3151119e+08  2870.2252      1432.4809    
    630000   500.02698     -1.3151127e+08  2857.984       1432.4951    
    631000   499.95266     -1.3151107e+08  2844.4791      1432.5094    
    632000   499.99312     -1.3151074e+08  2829.8049      1432.5236    
    633000   499.99513     -1.3151101e+08  2839.7365      1432.5379    
    634000   500.00505     -1.3151157e+08  2838.0046      1432.5521    
    635000   500.07207     -1.3151133e+08  2844.6605      1432.5664    
    636000   499.91441     -1.3151088e+08  2832.6591      1432.5806    
    637000   499.97736     -1.3151139e+08  2822.6771      1432.5948    
    638000   499.91465     -1.3151101e+08  2810.9305      1432.6091    
    639000   499.87934     -1.3151121e+08  2819.9044      1432.6233    
    640000   499.94572     -1.3151122e+08  2819.1618      1432.6376    
    641000   500.03273     -1.3151121e+08  2831.8381      1432.6518    
    642000   500.02338     -1.3151074e+08  2806.5548      1432.666     
    643000   499.89997     -1.3151061e+08  2802.4548      1432.6803    
    644000   500.00694     -1.3151065e+08  2795.2312      1432.6945    
    645000   500.02964     -1.3151048e+08  2806.5328      1432.7088    
    646000   500.02918     -1.3151059e+08  2812.7336      1432.723     
    647000   499.99605     -1.3151037e+08  2814.9591      1432.7373    
    648000   500.05324     -1.3151015e+08  2804.5606      1432.7515    
    649000   500.0227      -1.3151053e+08  2800.5602      1432.7657    
    650000   500.01116     -1.3151057e+08  2807.1556      1432.78      
    651000   500.00391     -1.3151063e+08  2796.5529      1432.7942    
    652000   500.03941     -1.3151086e+08  2793.5561      1432.8085    
    653000   500.07582     -1.3151065e+08  2790.1039      1432.8227    
    654000   500.03491     -1.3151043e+08  2772.3993      1432.837     
    655000   500.04745     -1.3151036e+08  2766.1308      1432.8512    
    656000   500.13842     -1.3151061e+08  2764.728       1432.8654    
    657000   500.06833     -1.3151043e+08  2765.908       1432.8797    
    658000   500.0733      -1.3151027e+08  2770.6266      1432.8939    
    659000   500.10112     -1.3151058e+08  2784.1239      1432.9082    
    660000   500.06829     -1.3151127e+08  2771.1704      1432.9224    
    661000   499.96891     -1.3151113e+08  2749.4495      1432.9367    
    662000   499.86376     -1.3151056e+08  2750.3687      1432.9509    
    663000   499.88989     -1.315106e+08   2744.9282      1432.9651    
    664000   499.89735     -1.3151055e+08  2743.3423      1432.9794    
    665000   500.00571     -1.3151054e+08  2751.2793      1432.9936    
    666000   499.92962     -1.3151059e+08  2761.7041      1433.0079    
    667000   499.93157     -1.3151026e+08  2758.9995      1433.0221    
    668000   500.04533     -1.3151006e+08  2752.7403      1433.0363    
    669000   500.04828     -1.3150981e+08  2739.7596      1433.0506    
    670000   500.04194     -1.3150957e+08  2731.857       1433.0648    
    671000   500.01335     -1.3150976e+08  2735.2706      1433.0791    
    672000   500.02312     -1.3150964e+08  2742.3138      1433.0933    
    673000   500.01531     -1.3150967e+08  2732.9045      1433.1076    
    674000   500.09494     -1.3150983e+08  2733.6524      1433.1218    
    675000   500.10108     -1.3151046e+08  2737.1004      1433.136     
    676000   500.1463      -1.3150998e+08  2738.464       1433.1503    
    677000   500.06367     -1.3150996e+08  2727.023       1433.1645    
    678000   500.04336     -1.3151002e+08  2713.5996      1433.1788    
    679000   499.96125     -1.3150966e+08  2706.5398      1433.193     
    680000   500.04883     -1.3151055e+08  2705.4951      1433.2073    
    681000   499.99947     -1.3151072e+08  2708.0543      1433.2215    
    682000   500.00896     -1.3151019e+08  2712.7417      1433.2357    
    683000   500.03108     -1.3151063e+08  2709.6834      1433.25      
    684000   499.93819     -1.3151048e+08  2697.7921      1433.2642    
    685000   500.05213     -1.3151075e+08  2702.8553      1433.2785    
    686000   499.90391     -1.315099e+08   2687.5677      1433.2927    
    687000   500.01096     -1.3151014e+08  2698.3374      1433.307     
    688000   499.91148     -1.315097e+08   2692.3945      1433.3212    
    689000   500.03551     -1.3151026e+08  2693.7717      1433.3354    
    690000   499.93948     -1.3151002e+08  2685.8227      1433.3497    
    691000   499.94058     -1.3151027e+08  2684.376       1433.3639    
    692000   499.9634      -1.3151023e+08  2673.9331      1433.3782    
    693000   499.91843     -1.3150992e+08  2681.426       1433.3924    
    694000   499.9661      -1.3150974e+08  2676.9152      1433.4067    
    695000   499.94389     -1.3150997e+08  2674.6698      1433.4209    
    696000   499.94244     -1.3150959e+08  2661.525       1433.4351    
    697000   499.92358     -1.3150943e+08  2646.5413      1433.4494    
    698000   499.98817     -1.3150981e+08  2663.7563      1433.4636    
    699000   499.9429      -1.3150966e+08  2667.9968      1433.4779    
    700000   499.94163     -1.3150971e+08  2668.3226      1433.4921    
    701000   499.93079     -1.3150945e+08  2648.3159      1433.5063    
    702000   499.89828     -1.3150987e+08  2642.051       1433.5206    
    703000   499.94453     -1.3150921e+08  2642.6868      1433.5348    
    704000   499.95103     -1.3150973e+08  2646.1913      1433.5491    
    705000   500.01525     -1.3150967e+08  2647.8941      1433.5633    
    706000   499.89339     -1.3150919e+08  2658.2759      1433.5776    
    707000   500.00031     -1.3150937e+08  2646.7357      1433.5918    
    708000   500.05149     -1.3150933e+08  2643.9438      1433.606     
    709000   500.07961     -1.3150948e+08  2627.0374      1433.6203    
    710000   500.03611     -1.3150944e+08  2627.5088      1433.6345    
    711000   499.95881     -1.3150928e+08  2616.6538      1433.6488    
    712000   499.95916     -1.3150985e+08  2619.5762      1433.663     
    713000   500.08956     -1.3150896e+08  2633.3717      1433.6773    
    714000   500.03637     -1.315085e+08   2629.66        1433.6915    
    715000   500.02754     -1.3150947e+08  2622.9712      1433.7057    
    716000   500.03455     -1.3150942e+08  2614.9408      1433.72      
    717000   499.95712     -1.3150913e+08  2616.1926      1433.7342    
    718000   499.91735     -1.3150893e+08  2616.424       1433.7485    
    719000   500.11237     -1.3150903e+08  2609.1256      1433.7627    
    720000   500.15128     -1.3150891e+08  2598.8581      1433.777     
    721000   500.0911      -1.3150921e+08  2599.2052      1433.7912    
    722000   499.98713     -1.315092e+08   2603.4337      1433.8054    
    723000   499.97896     -1.3150903e+08  2603.618       1433.8197    
    724000   500.09041     -1.3150904e+08  2608.755       1433.8339    
    725000   500.06249     -1.3150892e+08  2590.1218      1433.8482    
    726000   499.97907     -1.3150852e+08  2584.4037      1433.8624    
    727000   499.92341     -1.3150924e+08  2582.9562      1433.8766    
    728000   500.03751     -1.3150933e+08  2587.7422      1433.8909    
    729000   500.024       -1.3150936e+08  2588.5914      1433.9051    
    730000   499.97136     -1.315087e+08   2594.6893      1433.9194    
    731000   499.9467      -1.3150849e+08  2584.8865      1433.9336    
    732000   500.01886     -1.3150871e+08  2571.7989      1433.9479    
    733000   500.05815     -1.3150938e+08  2558.3225      1433.9621    
    734000   499.99096     -1.3150904e+08  2570.535       1433.9763    
    735000   500.0445      -1.3150887e+08  2564.2598      1433.9906    
    736000   500.09825     -1.3150927e+08  2568.3328      1434.0048    
    737000   499.9855      -1.315085e+08   2565.3127      1434.0191    
    738000   500.03683     -1.315091e+08   2548.1052      1434.0333    
    739000   499.98523     -1.3150918e+08  2550.931       1434.0476    
    740000   499.99841     -1.3150926e+08  2553.8038      1434.0618    
    741000   500.01435     -1.3150876e+08  2551.1989      1434.076     
    742000   500.11165     -1.3150857e+08  2545.4219      1434.0903    
    743000   499.99494     -1.3150791e+08  2540.5944      1434.1045    
    744000   499.93404     -1.3150785e+08  2531.2158      1434.1188    
    745000   499.97939     -1.3150812e+08  2531.4451      1434.133     
    746000   500.01924     -1.3150775e+08  2540.8873      1434.1473    
    747000   499.995       -1.3150795e+08  2535.7072      1434.1615    
    748000   500.05809     -1.3150828e+08  2532.1893      1434.1757    
    749000   500.02062     -1.3150836e+08  2528.0699      1434.19      
    750000   500.06299     -1.3150823e+08  2526.1479      1434.2042    
    751000   499.95825     -1.3150836e+08  2520.5367      1434.2185    
    752000   499.92693     -1.31508e+08    2518.6311      1434.2327    
    753000   499.93882     -1.3150842e+08  2515.6501      1434.2469    
    754000   499.95331     -1.3150797e+08  2509.7561      1434.2612    
    755000   500.06159     -1.3150824e+08  2507.5411      1434.2754    
    756000   499.99717     -1.3150806e+08  2506.8669      1434.2897    
    757000   499.91829     -1.3150814e+08  2505.1275      1434.3039    
    758000   499.9373      -1.3150843e+08  2499.2322      1434.3182    
    759000   499.93828     -1.3150811e+08  2509.3536      1434.3324    
    760000   500.08489     -1.3150818e+08  2497.1677      1434.3466    
    761000   500.12185     -1.315083e+08   2501.9338      1434.3609    
    762000   499.98912     -1.3150809e+08  2488.9097      1434.3751    
    763000   500.02081     -1.3150802e+08  2495.4584      1434.3894    
    764000   499.97732     -1.3150745e+08  2501.1244      1434.4036    
    765000   499.94115     -1.3150739e+08  2499.6664      1434.4179    
    766000   499.98051     -1.3150754e+08  2486.952       1434.4321    
    767000   499.99906     -1.3150787e+08  2481.5439      1434.4463    
    768000   500.01421     -1.3150803e+08  2475.0205      1434.4606    
    769000   499.99787     -1.3150784e+08  2478.4695      1434.4748    
    770000   499.93786     -1.3150774e+08  2468.3924      1434.4891    
    771000   499.92656     -1.3150784e+08  2467.9959      1434.5033    
    772000   499.87863     -1.3150774e+08  2458.6035      1434.5176    
    773000   499.88762     -1.3150758e+08  2455.0725      1434.5318    
    774000   499.9596      -1.3150766e+08  2460.6574      1434.546     
    775000   499.95453     -1.3150789e+08  2458.8174      1434.5603    
    776000   499.98425     -1.3150796e+08  2458.9411      1434.5745    
    777000   499.99892     -1.3150796e+08  2449.3303      1434.5888    
    778000   499.94105     -1.3150776e+08  2450.6736      1434.603     
    779000   499.93752     -1.3150771e+08  2444.4143      1434.6172    
    780000   499.89458     -1.3150785e+08  2448.5535      1434.6315    
    781000   500.07519     -1.3150759e+08  2447.3405      1434.6457    
    782000   500.05514     -1.3150738e+08  2442.6572      1434.66      
    783000   500.00345     -1.3150707e+08  2425.927       1434.6742    
    784000   500.01363     -1.3150729e+08  2427.4926      1434.6885    
    785000   500.01603     -1.3150743e+08  2427.1347      1434.7027    
    786000   500.11078     -1.3150715e+08  2442.0095      1434.7169    
    787000   500.10524     -1.3150727e+08  2438.0782      1434.7312    
    788000   500.08929     -1.3150736e+08  2432.4152      1434.7454    
    789000   500.14959     -1.3150744e+08  2421.4056      1434.7597    
    790000   500.07569     -1.3150717e+08  2407.7175      1434.7739    
    791000   500.12158     -1.3150714e+08  2413.1257      1434.7882    
    792000   499.9504      -1.3150703e+08  2409.5631      1434.8024    
    793000   499.99199     -1.3150675e+08  2422.2578      1434.8166    
    794000   500.06971     -1.3150686e+08  2425.8614      1434.8309    
    795000   500.0265      -1.3150691e+08  2418.8454      1434.8451    
    796000   500.01544     -1.3150707e+08  2410.5186      1434.8594    
    797000   500.10057     -1.3150728e+08  2404.0217      1434.8736    
    798000   499.94162     -1.3150701e+08  2390.9009      1434.8879    
    799000   500.05289     -1.3150687e+08  2388.7401      1434.9021    
    800000   500.09227     -1.3150718e+08  2394.8959      1434.9163    
    801000   500.12633     -1.3150713e+08  2403.1681      1434.9306    
    802000   500.03042     -1.3150712e+08  2384.5301      1434.9448    
    803000   499.89803     -1.3150732e+08  2384.2205      1434.9591    
    804000   499.85371     -1.3150723e+08  2375.5276      1434.9733    
    805000   499.88782     -1.3150731e+08  2374.7332      1434.9876    
    806000   499.98959     -1.3150754e+08  2375.5182      1435.0018    
    807000   500.08741     -1.3150705e+08  2390.8634      1435.016     
    808000   499.98956     -1.3150658e+08  2386.6481      1435.0303    
    809000   499.9956      -1.3150653e+08  2368.6475      1435.0445    
    810000   500.00647     -1.315064e+08   2356.7623      1435.0588    
    811000   500.02197     -1.315063e+08   2356.383       1435.073     
    812000   499.97342     -1.3150709e+08  2357.1992      1435.0872    
    813000   499.92183     -1.3150648e+08  2369.3964      1435.1015    
    814000   499.97723     -1.3150658e+08  2365.1885      1435.1157    
    815000   499.99303     -1.3150672e+08  2370.0549      1435.13      
    816000   499.91281     -1.3150684e+08  2362.9821      1435.1442    
    817000   499.91853     -1.3150644e+08  2349.2814      1435.1585    
    818000   500.0207      -1.3150666e+08  2341.2085      1435.1727    
    819000   500.04591     -1.3150629e+08  2330.2712      1435.1869    
    820000   499.9206      -1.3150601e+08  2342.7836      1435.2012    
    821000   499.96832     -1.3150622e+08  2342.6369      1435.2154    
    822000   499.9794      -1.3150605e+08  2357.3532      1435.2297    
    823000   499.95138     -1.3150583e+08  2339.4457      1435.2439    
    824000   499.92744     -1.3150605e+08  2340.3214      1435.2582    
    825000   499.93516     -1.3150664e+08  2327.551       1435.2724    
    826000   500.02881     -1.3150652e+08  2319.1184      1435.2866    
    827000   500.02711     -1.3150679e+08  2323.2693      1435.3009    
    828000   500.0438      -1.3150635e+08  2324.5916      1435.3151    
    829000   500.00112     -1.3150621e+08  2329.261       1435.3294    
    830000   500.07074     -1.3150612e+08  2320.915       1435.3436    
    831000   499.99032     -1.3150643e+08  2319.9599      1435.3579    
    832000   500.02779     -1.3150644e+08  2321.1911      1435.3721    
    833000   499.97592     -1.3150604e+08  2318.0735      1435.3863    
    834000   499.96517     -1.3150589e+08  2302.1665      1435.4006    
    835000   499.93636     -1.3150563e+08  2303.5442      1435.4148    
    836000   499.92323     -1.3150606e+08  2310.1983      1435.4291    
    837000   499.97177     -1.3150628e+08  2315.6013      1435.4433    
    838000   499.94803     -1.3150617e+08  2304.6023      1435.4575    
    839000   500.00574     -1.3150576e+08  2290.27        1435.4718    
    840000   499.96187     -1.315056e+08   2286.4144      1435.486     
    841000   499.96896     -1.3150594e+08  2293.7316      1435.5003    
    842000   499.85893     -1.3150574e+08  2294.2776      1435.5145    
    843000   499.83272     -1.3150595e+08  2292.9286      1435.5288    
    844000   499.87937     -1.3150577e+08  2274.681       1435.543     
    845000   499.96688     -1.3150633e+08  2278.1965      1435.5572    
    846000   499.93323     -1.3150597e+08  2281.5683      1435.5715    
    847000   499.91787     -1.3150596e+08  2290.9413      1435.5857    
    848000   499.86581     -1.31506e+08    2268.0489      1435.6       
    849000   499.8152      -1.3150632e+08  2265.9026      1435.6142    
    850000   499.89565     -1.3150613e+08  2254.6616      1435.6285    
    851000   499.96532     -1.315058e+08   2261.3252      1435.6427    
    852000   499.98411     -1.3150563e+08  2256.6798      1435.6569    
    853000   500.00246     -1.3150534e+08  2261.1799      1435.6712    
    854000   500.03053     -1.3150515e+08  2267.5559      1435.6854    
    855000   499.99466     -1.3150475e+08  2251.1313      1435.6997    
    856000   499.9531      -1.3150482e+08  2248.5996      1435.7139    
    857000   500.11712     -1.3150565e+08  2230.9238      1435.7282    
    858000   500.06796     -1.3150523e+08  2239.2048      1435.7424    
    859000   500.09512     -1.3150579e+08  2241.9908      1435.7566    
    860000   499.97314     -1.3150546e+08  2239.1445      1435.7709    
    861000   499.98643     -1.3150586e+08  2237.1823      1435.7851    
    862000   500.0497      -1.3150537e+08  2241.2454      1435.7994    
    863000   500.06821     -1.3150543e+08  2222.8833      1435.8136    
    864000   500.04778     -1.315056e+08   2217.5662      1435.8278    
    865000   499.9796      -1.3150526e+08  2223.3002      1435.8421    
    866000   499.94972     -1.3150496e+08  2232.2703      1435.8563    
    867000   500.04577     -1.3150564e+08  2218.7031      1435.8706    
    868000   500.01346     -1.315055e+08   2224.2885      1435.8848    
    869000   499.947       -1.3150485e+08  2213.8359      1435.8991    
    870000   500.06375     -1.315052e+08   2201.6855      1435.9133    
    871000   500.04039     -1.315048e+08   2199.6008      1435.9275    
    872000   499.97808     -1.315048e+08   2198.6508      1435.9418    
    873000   500.02485     -1.315046e+08   2218.6008      1435.956     
    874000   500.03798     -1.3150506e+08  2216.7548      1435.9703    
    875000   500.06596     -1.3150446e+08  2213.2458      1435.9845    
    876000   500.07874     -1.3150475e+08  2192.7291      1435.9988    
    877000   499.97815     -1.3150464e+08  2188.4115      1436.013     
    878000   500.04327     -1.315048e+08   2174.6423      1436.0272    
    879000   500.10187     -1.3150445e+08  2186.5716      1436.0415    
    880000   500.05159     -1.3150501e+08  2200.3881      1436.0557    
    881000   499.98714     -1.3150471e+08  2201.4953      1436.07      
    882000   499.93205     -1.3150467e+08  2184.3834      1436.0842    
    883000   499.96236     -1.3150453e+08  2172.9907      1436.0985    
    884000   499.96085     -1.315047e+08   2171.7549      1436.1127    
    885000   500.03574     -1.3150418e+08  2171.8443      1436.1269    
    886000   500.02603     -1.3150456e+08  2154.2242      1436.1412    
    887000   500.02109     -1.315047e+08   2149.799       1436.1554    
    888000   499.9535      -1.3150445e+08  2165.8173      1436.1697    
    889000   500.06427     -1.315045e+08   2168.9968      1436.1839    
    890000   499.93976     -1.315041e+08   2181.6395      1436.1982    
    891000   500.11747     -1.3150505e+08  2162.9434      1436.2124    
    892000   500.01223     -1.3150435e+08  2161.4883      1436.2266    
    893000   500.0562      -1.3150486e+08  2144.8551      1436.2409    
    894000   499.99794     -1.3150433e+08  2140.7685      1436.2551    
    895000   499.95528     -1.315042e+08   2138.5007      1436.2694    
    896000   499.9454      -1.3150362e+08  2137.5284      1436.2836    
    897000   500.08139     -1.3150432e+08  2143.5598      1436.2978    
    898000   499.99965     -1.3150431e+08  2140.4732      1436.3121    
    899000   499.97312     -1.3150433e+08  2126.9838      1436.3263    
    900000   499.99523     -1.3150392e+08  2131.7297      1436.3406    
    901000   500.0418      -1.3150451e+08  2121.8406      1436.3548    
    902000   499.90066     -1.3150401e+08  2142.8888      1436.3691    
    903000   499.93152     -1.3150451e+08  2133.9469      1436.3833    
    904000   499.98393     -1.3150418e+08  2130.7236      1436.3975    
    905000   499.94802     -1.3150403e+08  2135.135       1436.4118    
    906000   500.01169     -1.3150461e+08  2116.8322      1436.426     
    907000   499.98949     -1.3150417e+08  2119.1892      1436.4403    
    908000   499.94283     -1.3150381e+08  2101.4766      1436.4545    
    909000   499.97664     -1.3150414e+08  2114.4506      1436.4688    
    910000   499.96586     -1.3150402e+08  2112.0315      1436.483     
    911000   500.03813     -1.3150409e+08  2122.7838      1436.4972    
    912000   500.0572      -1.315038e+08   2111.9474      1436.5115    
    913000   500.01954     -1.3150362e+08  2105.1639      1436.5257    
    914000   500.00849     -1.3150338e+08  2102.7089      1436.54      
    915000   500.06169     -1.3150373e+08  2098.1352      1436.5542    
    916000   499.96772     -1.3150357e+08  2090.8892      1436.5685    
    917000   499.96706     -1.3150344e+08  2078.9802      1436.5827    
    918000   500.00462     -1.3150368e+08  2091.024       1436.5969    
    919000   499.99103     -1.3150382e+08  2090.0117      1436.6112    
    920000   499.98994     -1.3150329e+08  2089.0001      1436.6254    
    921000   500.05302     -1.3150349e+08  2085.2772      1436.6397    
    922000   500.05663     -1.3150351e+08  2078.4121      1436.6539    
    923000   499.97546     -1.3150351e+08  2085.7632      1436.6681    
    924000   499.97289     -1.3150364e+08  2088.8403      1436.6824    
    925000   499.93742     -1.3150283e+08  2079.9007      1436.6966    
    926000   500.11609     -1.3150331e+08  2074.5348      1436.7109    
    927000   500.02701     -1.3150303e+08  2081.6457      1436.7251    
    928000   500.1155      -1.3150313e+08  2065.3942      1436.7394    
    929000   499.98336     -1.3150303e+08  2059.2339      1436.7536    
    930000   500.00396     -1.3150315e+08  2047.6383      1436.7678    
    931000   500.03419     -1.315035e+08   2043.2199      1436.7821    
    932000   500.04764     -1.3150381e+08  2032.5137      1436.7963    
    933000   499.90442     -1.3150337e+08  2044.6793      1436.8106    
    934000   499.89998     -1.3150309e+08  2037.027       1436.8248    
    935000   499.95968     -1.3150242e+08  2044.2145      1436.8391    
    936000   500.06421     -1.3150263e+08  2045.6834      1436.8533    
    937000   499.948       -1.315028e+08   2043.9149      1436.8675    
    938000   500.05354     -1.3150359e+08  2037.6563      1436.8818    
    939000   500.02495     -1.3150291e+08  2029.5487      1436.896     
    940000   500.07415     -1.3150278e+08  2023.4133      1436.9103    
    941000   500.05404     -1.315025e+08   2013.9242      1436.9245    
    942000   500.03155     -1.3150254e+08  2029.145       1436.9388    
    943000   500.00262     -1.3150256e+08  2015.057       1436.953     
    944000   499.99499     -1.3150302e+08  2023.2505      1436.9672    
    945000   499.99101     -1.3150265e+08  2009.8564      1436.9815    
    946000   500.11254     -1.3150279e+08  2028.5169      1436.9957    
    947000   500.00975     -1.3150268e+08  2004.6897      1437.01      
    948000   499.97753     -1.315024e+08   2014.3098      1437.0242    
    949000   499.965       -1.3150226e+08  1999.3742      1437.0384    
    950000   499.95593     -1.3150236e+08  2004.8418      1437.0527    
    951000   500.07778     -1.3150252e+08  2002.9056      1437.0669    
    952000   500.01087     -1.3150285e+08  2002.7671      1437.0812    
    953000   500.00641     -1.315026e+08   2004.2028      1437.0954    
    954000   500.12098     -1.3150256e+08  1994.1898      1437.1097    
    955000   499.99193     -1.3150232e+08  1996.035       1437.1239    
    956000   499.86618     -1.3150225e+08  1995.0508      1437.1381    
    957000   499.91612     -1.3150296e+08  1985.2758      1437.1524    
    958000   499.95892     -1.3150259e+08  1977.3432      1437.1666    
    959000   500.01225     -1.3150255e+08  1971.3974      1437.1809    
    960000   500.0488      -1.3150263e+08  1972.7742      1437.1951    
    961000   500.03712     -1.3150224e+08  1970.515       1437.2094    
    962000   500.029       -1.3150227e+08  1982.5741      1437.2236    
    963000   499.9814      -1.3150239e+08  1973.0154      1437.2378    
    964000   499.96916     -1.3150211e+08  1978.4513      1437.2521    
    965000   499.93458     -1.3150187e+08  1975.0114      1437.2663    
    966000   500.00418     -1.3150216e+08  1968.6898      1437.2806    
    967000   499.90755     -1.3150198e+08  1958.8459      1437.2948    
    968000   499.83031     -1.3150206e+08  1960.5063      1437.3091    
    969000   499.86843     -1.3150239e+08  1946.7568      1437.3233    
    970000   499.96249     -1.3150243e+08  1960.4634      1437.3375    
    971000   500.09861     -1.315029e+08   1943.5311      1437.3518    
    972000   499.99492     -1.3150238e+08  1943.3221      1437.366     
    973000   499.89992     -1.3150212e+08  1940.5744      1437.3803    
    974000   499.94441     -1.315021e+08   1943.1393      1437.3945    
    975000   500.02594     -1.3150216e+08  1930.645       1437.4087    
    976000   500.00886     -1.3150157e+08  1938.4102      1437.423     
    977000   500.02849     -1.3150134e+08  1926.4315      1437.4372    
    978000   499.96733     -1.3150154e+08  1938.5347      1437.4515    
    979000   499.91954     -1.3150145e+08  1925.9229      1437.4657    
    980000   499.96156     -1.3150174e+08  1922.8438      1437.48      
    981000   499.99901     -1.315012e+08   1905.9389      1437.4942    
    982000   500.11553     -1.3150143e+08  1920.7163      1437.5084    
    983000   500.04296     -1.3150132e+08  1903.0569      1437.5227    
    984000   499.99812     -1.3150123e+08  1912.7455      1437.5369    
    985000   499.98046     -1.3150101e+08  1910.8277      1437.5512    
    986000   499.97437     -1.3150121e+08  1917.566       1437.5654    
    987000   500.1118      -1.3150111e+08  1914.691       1437.5797    
    988000   500.09361     -1.3150076e+08  1906.4097      1437.5939    
    989000   500.15808     -1.3150124e+08  1903.427       1437.6081    
    990000   500.02246     -1.3150092e+08  1896.2097      1437.6224    
    991000   500.12941     -1.3150079e+08  1898.1976      1437.6366    
    992000   500.09974     -1.3150114e+08  1895.8021      1437.6509    
    993000   499.97775     -1.3150027e+08  1903.8541      1437.6651    
    994000   500.0806      -1.3150081e+08  1901.0266      1437.6794    
    995000   500.14451     -1.3150097e+08  1905.5026      1437.6936    
    996000   499.98028     -1.3150067e+08  1899.6164      1437.7078    
    997000   499.99763     -1.3150092e+08  1891.9214      1437.7221    
    998000   500.13668     -1.3150127e+08  1881.7649      1437.7363    
    999000   500.077       -1.3150064e+08  1879.8573      1437.7506    
   1000000   500.00072     -1.3150068e+08  1880.0884      1437.7648    
   1001000   500.0463      -1.3150072e+08  1886.3978      1437.7791    
   1002000   499.9565      -1.3150074e+08  1886.2249      1437.7933    
   1003000   499.98562     -1.31501e+08    1872.8592      1437.8075    
   1004000   499.99754     -1.3150048e+08  1867.097       1437.8218    
   1005000   499.98714     -1.3149999e+08  1861.2119      1437.836     
   1006000   500.03641     -1.3150003e+08  1858.5772      1437.8503    
   1007000   500.11468     -1.3150058e+08  1849.1202      1437.8645    
   1008000   500.08068     -1.3150053e+08  1846.5952      1437.8787    
   1009000   500.10624     -1.3150099e+08  1843.527       1437.893     
   1010000   499.95076     -1.3150045e+08  1847.9856      1437.9072    
   1011000   500.0482      -1.3150031e+08  1850.8631      1437.9215    
   1012000   500.0695      -1.3150063e+08  1849.4374      1437.9357    
   1013000   500.03891     -1.3150025e+08  1843.3431      1437.95      
   1014000   499.92673     -1.3150028e+08  1837.5346      1437.9642    
   1015000   499.98555     -1.3150082e+08  1824.3019      1437.9784    
   1016000   499.87208     -1.3150074e+08  1826.4429      1437.9927    
   1017000   500.02574     -1.3150075e+08  1825.3224      1438.0069    
   1018000   499.93108     -1.3150005e+08  1833.6786      1438.0212    
   1019000   499.98229     -1.3150042e+08  1828.0464      1438.0354    
   1020000   500.07454     -1.3150103e+08  1828.7481      1438.0497    
   1021000   499.97818     -1.3149998e+08  1825.5672      1438.0639    
   1022000   500.01341     -1.3149985e+08  1820.0994      1438.0781    
   1023000   500.09912     -1.3149961e+08  1819.4631      1438.0924    
   1024000   500.0205      -1.3150007e+08  1811.4428      1438.1066    
   1025000   499.93596     -1.315003e+08   1812.5911      1438.1209    
   1026000   499.94073     -1.3150035e+08  1805.2996      1438.1351    
   1027000   500.09867     -1.3150069e+08  1804.1503      1438.1494    
   1028000   500.07954     -1.3150018e+08  1802.9326      1438.1636    
   1029000   500.07513     -1.3150009e+08  1799.1718      1438.1778    
   1030000   499.87703     -1.3149969e+08  1802.2954      1438.1921    
   1031000   499.92126     -1.3150017e+08  1790.1947      1438.2063    
   1032000   500.03329     -1.3150039e+08  1784.6186      1438.2206    
   1033000   499.88196     -1.3149977e+08  1781.0296      1438.2348    
   1034000   500.00967     -1.3150011e+08  1788.5313      1438.249     
   1035000   499.9598      -1.3149987e+08  1785.3737      1438.2633    
   1036000   500.02153     -1.3150036e+08  1773.0395      1438.2775    
[...]
   3788000   499.94216     -1.3129931e+08 -4023.3518      1477.4725    
   3789000   499.9735      -1.3129949e+08 -4019.7276      1477.4867    
   3790000   499.91124     -1.3129897e+08 -4027.3081      1477.501     
   3791000   500.01777     -1.3129933e+08 -4026.5893      1477.5152    
   3792000   500.04486     -1.3129926e+08 -4031.2929      1477.5294    
   3793000   500.01928     -1.3129936e+08 -4031.378       1477.5437    
   3794000   499.96826     -1.3129888e+08 -4031.6133      1477.5579    
   3795000   500.01292     -1.3129846e+08 -4031.0269      1477.5722    
   3796000   499.98245     -1.3129845e+08 -4037.0445      1477.5864    
   3797000   499.93734     -1.3129857e+08 -4037.7385      1477.6006    
   3798000   499.9717      -1.3129872e+08 -4038.0659      1477.6149    
   3799000   500.03683     -1.3129849e+08 -4038.5586      1477.6291    
   3800000   499.92166     -1.3129815e+08 -4032.2075      1477.6434    
   3801000   499.87743     -1.3129813e+08 -4044.0765      1477.6576    
   3802000   500.06398     -1.3129819e+08 -4040.372       1477.6719    
   3803000   499.95219     -1.3129776e+08 -4053.0535      1477.6861    
   3804000   499.98467     -1.312976e+08  -4052.8763      1477.7003    
   3805000   500.02588     -1.3129765e+08 -4043.3488      1477.7146    
   3806000   500.02894     -1.3129736e+08 -4047.2342      1477.7288    
   3807000   500.05051     -1.3129737e+08 -4043.4637      1477.7431    
   3808000   500.05323     -1.3129731e+08 -4050.8408      1477.7573    
   3809000   500.05818     -1.3129696e+08 -4057.629       1477.7716    
   3810000   500.04429     -1.3129658e+08 -4055.866       1477.7858    
   3811000   500.08678     -1.3129699e+08 -4065.2748      1477.8       
   3812000   499.9877      -1.3129704e+08 -4061.6339      1477.8143    
   3813000   499.92305     -1.3129632e+08 -4055.8374      1477.8285    
   3814000   500.12046     -1.3129671e+08 -4067.0231      1477.8428    
   3815000   500.00285     -1.3129618e+08 -4071.2608      1477.857     
   3816000   500.11324     -1.3129685e+08 -4062.6536      1477.8713    
   3817000   499.96214     -1.3129703e+08 -4070.9506      1477.8855    
   3818000   499.91636     -1.3129671e+08 -4055.5191      1477.8997    
   3819000   499.93875     -1.3129612e+08 -4060.1105      1477.914     
   3820000   500.04584     -1.3129612e+08 -4062.9251      1477.9282    
   3821000   499.98756     -1.3129584e+08 -4074.0644      1477.9425    
   3822000   499.92478     -1.3129574e+08 -4077.9447      1477.9567    
   3823000   499.87609     -1.3129544e+08 -4077.1341      1477.971     
   3824000   499.90344     -1.3129611e+08 -4076.8856      1477.9852    
   3825000   499.91599     -1.3129613e+08 -4074.6294      1477.9994    
   3826000   500.02953     -1.3129557e+08 -4081.4877      1478.0137    
   3827000   499.94659     -1.312955e+08  -4083.9767      1478.0279    
   3828000   500.069       -1.312958e+08  -4088.8831      1478.0422    
   3829000   500.10705     -1.3129484e+08 -4080.3725      1478.0564    
   3830000   500.10544     -1.31295e+08   -4091.2168      1478.0706    
   3831000   500.05225     -1.3129488e+08 -4093.8623      1478.0849    
   3832000   500.03989     -1.3129509e+08 -4093.3439      1478.0991    
   3833000   499.98773     -1.3129429e+08 -4082.3935      1478.1134    
   3834000   499.99978     -1.3129468e+08 -4097.0859      1478.1276    
   3835000   499.98536     -1.3129386e+08 -4091.5683      1478.1419    
   3836000   499.99483     -1.3129417e+08 -4109.0871      1478.1561    
   3837000   499.90924     -1.312939e+08  -4107.8508      1478.1703    
   3838000   500.062       -1.3129409e+08 -4111.7513      1478.1846    
   3839000   499.97213     -1.3129388e+08 -4110.9469      1478.1988    
   3840000   500.04        -1.3129389e+08 -4107.7304      1478.2131    
   3841000   499.97374     -1.3129355e+08 -4094.7257      1478.2273    
   3842000   500.03883     -1.3129384e+08 -4102.4542      1478.2416    
   3843000   499.94181     -1.3129319e+08 -4104.5927      1478.2558    
   3844000   499.93585     -1.3129292e+08 -4121.3382      1478.27      
   3845000   500.03394     -1.3129352e+08 -4128.6871      1478.2843    
   3846000   499.91861     -1.3129308e+08 -4121.061       1478.2985    
   3847000   499.97578     -1.3129277e+08 -4114.2278      1478.3128    
   3848000   499.95847     -1.3129263e+08 -4113.7921      1478.327     
   3849000   499.96413     -1.3129293e+08 -4121.7463      1478.3413    
   3850000   499.93821     -1.3129262e+08 -4122.4668      1478.3555    
   3851000   500.00691     -1.3129201e+08 -4121.3029      1478.3697    
   3852000   500.05415     -1.312923e+08  -4129.8787      1478.384     
   3853000   500.12687     -1.312928e+08  -4134.4974      1478.3982    
   3854000   500.07537     -1.3129272e+08 -4126.0768      1478.4125    
   3855000   499.96214     -1.3129257e+08 -4125.9786      1478.4267    
   3856000   500.03088     -1.3129261e+08 -4127.8728      1478.4409    
   3857000   499.92014     -1.3129219e+08 -4125.5152      1478.4552    
   3858000   499.98218     -1.3129179e+08 -4130.5471      1478.4694    
   3859000   499.9829      -1.3129201e+08 -4127.5508      1478.4837    
   3860000   499.89538     -1.3129221e+08 -4143.9755      1478.4979    
   3861000   499.90949     -1.31292e+08   -4136.4559      1478.5122    
   3862000   500.00841     -1.3129212e+08 -4140.4846      1478.5264    
   3863000   500.00328     -1.3129139e+08 -4137.6089      1478.5406    
   3864000   500.02911     -1.312908e+08  -4139.9982      1478.5549    
   3865000   499.95963     -1.3129094e+08 -4147.0101      1478.5691    
   3866000   499.99683     -1.3129089e+08 -4149.5103      1478.5834    
   3867000   500.03258     -1.3129095e+08 -4159.0887      1478.5976    
   3868000   499.93592     -1.3129069e+08 -4148.5436      1478.6119    
   3869000   499.87993     -1.3129026e+08 -4143.5332      1478.6261    
   3870000   500.00833     -1.3129093e+08 -4151.2707      1478.6403    
   3871000   500.07617     -1.3129081e+08 -4155.248       1478.6546    
   3872000   500.03918     -1.312903e+08  -4157.1615      1478.6688    
   3873000   500.03978     -1.312895e+08  -4161.1306      1478.6831    
   3874000   500.03646     -1.312898e+08  -4166.2339      1478.6973    
   3875000   500.06967     -1.312902e+08  -4160.1229      1478.7116    
   3876000   499.98795     -1.3128974e+08 -4162.8932      1478.7258    
   3877000   500.06979     -1.3129014e+08 -4162.2579      1478.74      
   3878000   499.87782     -1.3129004e+08 -4166.1887      1478.7543    
   3879000   499.96139     -1.3129036e+08 -4177.6059      1478.7685    
   3880000   499.87112     -1.3128925e+08 -4181.621       1478.7828    
   3881000   499.9477      -1.3128954e+08 -4187.9454      1478.797     
   3882000   499.98527     -1.3128933e+08 -4179.0237      1478.8112    
   3883000   499.99136     -1.3128888e+08 -4180.295       1478.8255    
   3884000   499.97039     -1.3128876e+08 -4181.9614      1478.8397    
   3885000   500.13381     -1.3128925e+08 -4182.2532      1478.854     
   3886000   500.07395     -1.3128898e+08 -4184.8366      1478.8682    
   3887000   499.97181     -1.3128873e+08 -4180.6572      1478.8825    
   3888000   500.03925     -1.312889e+08  -4183.7448      1478.8967    
   3889000   499.90074     -1.3128835e+08 -4185.835       1478.9109    
   3890000   499.96515     -1.3128832e+08 -4191.6556      1478.9252    
   3891000   500.00832     -1.3128776e+08 -4184.6874      1478.9394    
   3892000   500.08177     -1.3128771e+08 -4192.1093      1478.9537    
   3893000   500.16259     -1.3128792e+08 -4187.1914      1478.9679    
   3894000   500.02175     -1.3128742e+08 -4191.2619      1478.9822    
   3895000   500.03787     -1.3128787e+08 -4188.5991      1478.9964    
   3896000   500.03919     -1.312871e+08  -4192.3132      1479.0106    
   3897000   500.06602     -1.3128726e+08 -4202.1977      1479.0249    
   3898000   499.98108     -1.3128714e+08 -4199.5885      1479.0391    
   3899000   499.98013     -1.3128725e+08 -4209.4227      1479.0534    
   3900000   499.93612     -1.3128692e+08 -4196.7827      1479.0676    
   3901000   499.99259     -1.3128744e+08 -4206.4107      1479.0819    
   3902000   499.94557     -1.3128716e+08 -4209.1448      1479.0961    
   3903000   499.93908     -1.312865e+08  -4214.1664      1479.1103    
   3904000   500.03965     -1.31287e+08   -4209.7682      1479.1246    
   3905000   500.08489     -1.3128678e+08 -4202.6781      1479.1388    
   3906000   500.02992     -1.312866e+08  -4204.9476      1479.1531    
   3907000   499.98905     -1.3128687e+08 -4208.5295      1479.1673    
   3908000   500.05762     -1.3128705e+08 -4220.0378      1479.1815    
   3909000   500.01874     -1.3128678e+08 -4206.4142      1479.1958    
   3910000   499.94518     -1.3128601e+08 -4204.8084      1479.21      
   3911000   499.98704     -1.3128592e+08 -4201.8266      1479.2243    
   3912000   499.93007     -1.3128578e+08 -4230.6828      1479.2385    
   3913000   500.00865     -1.3128632e+08 -4234.0173      1479.2528    
   3914000   499.90766     -1.3128592e+08 -4228.9042      1479.267     
   3915000   499.99072     -1.3128549e+08 -4212.1218      1479.2812    
   3916000   500.02314     -1.3128592e+08 -4217.3751      1479.2955    
   3917000   499.86677     -1.3128563e+08 -4228.9697      1479.3097    
   3918000   499.8097      -1.312854e+08  -4230.8142      1479.324     
   3919000   499.9119      -1.3128545e+08 -4231.6868      1479.3382    
   3920000   499.99282     -1.3128583e+08 -4238.5262      1479.3525    
   3921000   500.07695     -1.3128522e+08 -4239.7215      1479.3667    
   3922000   500.08674     -1.3128463e+08 -4234.3367      1479.3809    
   3923000   500.11474     -1.3128469e+08 -4234.2194      1479.3952    
   3924000   500.08646     -1.31285e+08   -4235.159       1479.4094    
   3925000   499.98316     -1.3128479e+08 -4239.3746      1479.4237    
   3926000   499.98695     -1.3128459e+08 -4241.0271      1479.4379    
   3927000   500.02011     -1.3128459e+08 -4243.4284      1479.4522    
   3928000   499.90981     -1.3128442e+08 -4248.5266      1479.4664    
   3929000   499.94337     -1.3128438e+08 -4242.1808      1479.4806    
   3930000   499.95507     -1.3128463e+08 -4238.8186      1479.4949    
   3931000   499.94827     -1.3128423e+08 -4243.4865      1479.5091    
   3932000   499.95296     -1.31284e+08   -4253.442       1479.5234    
   3933000   499.94258     -1.3128384e+08 -4260.6942      1479.5376    
   3934000   499.98772     -1.3128384e+08 -4262.0007      1479.5519    
   3935000   500.14883     -1.3128373e+08 -4253.9629      1479.5661    
   3936000   500.0387      -1.3128383e+08 -4264.1573      1479.5803    
   3937000   499.85782     -1.3128319e+08 -4269.6078      1479.5946    
   3938000   499.92677     -1.3128307e+08 -4280.2399      1479.6088    
   3939000   499.9837      -1.3128344e+08 -4263.0238      1479.6231    
   3940000   499.99187     -1.3128272e+08 -4260.6632      1479.6373    
   3941000   499.99405     -1.3128238e+08 -4257.6818      1479.6515    
   3942000   500.09302     -1.3128266e+08 -4278.4637      1479.6658    
   3943000   499.89333     -1.3128227e+08 -4285.834       1479.68      
   3944000   499.90805     -1.3128262e+08 -4278.4126      1479.6943    
   3945000   499.90301     -1.3128276e+08 -4270.0285      1479.7085    
   3946000   499.97367     -1.3128291e+08 -4260.8902      1479.7228    
   3947000   499.90108     -1.3128234e+08 -4267.8121      1479.737     
   3948000   500.01524     -1.3128284e+08 -4275.9411      1479.7512    
   3949000   500.01201     -1.312823e+08  -4288.0474      1479.7655    
   3950000   499.99106     -1.3128141e+08 -4282.8542      1479.7797    
   3951000   499.99504     -1.3128204e+08 -4290.827       1479.794     
   3952000   499.99022     -1.3128162e+08 -4279.8206      1479.8082    
   3953000   500.03043     -1.3128158e+08 -4288.8285      1479.8225    
   3954000   499.96527     -1.3128146e+08 -4279.6247      1479.8367    
   3955000   499.94626     -1.3128089e+08 -4290.4972      1479.8509    
   3956000   500.05598     -1.3128155e+08 -4299.9727      1479.8652    
   3957000   500.06413     -1.3128122e+08 -4305.5928      1479.8794    
   3958000   500.02115     -1.3128147e+08 -4302.2472      1479.8937    
   3959000   499.92203     -1.3128128e+08 -4297.3864      1479.9079    
   3960000   500.06772     -1.3128158e+08 -4289.957       1479.9222    
   3961000   500.003       -1.3128134e+08 -4288.9181      1479.9364    
   3962000   500.03911     -1.3128077e+08 -4293.2557      1479.9506    
   3963000   500.02312     -1.3128044e+08 -4303.1839      1479.9649    
   3964000   500.00497     -1.3128044e+08 -4304.01        1479.9791    
   3965000   499.89618     -1.3128029e+08 -4316.2748      1479.9934    
   3966000   499.92713     -1.3128011e+08 -4313.1532      1480.0076    
   3967000   500.00791     -1.3127971e+08 -4310.7301      1480.0218    
   3968000   500.06473     -1.3127934e+08 -4310.6638      1480.0361    
   3969000   500.06246     -1.3127941e+08 -4311.3054      1480.0503    
   3970000   500.01329     -1.3127919e+08 -4312.5923      1480.0646    
   3971000   499.9461      -1.3127939e+08 -4305.9525      1480.0788    
   3972000   499.92897     -1.3127972e+08 -4308.2507      1480.0931    
   3973000   499.96396     -1.3127945e+08 -4321.9549      1480.1073    
   3974000   499.84484     -1.3127918e+08 -4328.6205      1480.1215    
   3975000   499.92511     -1.3127961e+08 -4338.1874      1480.1358    
   3976000   499.90934     -1.3127952e+08 -4329.0707      1480.15      
   3977000   499.87437     -1.3127937e+08 -4313.5059      1480.1643    
   3978000   500.03377     -1.312795e+08  -4322.0987      1480.1785    
   3979000   500.00973     -1.312791e+08  -4330.6844      1480.1928    
   3980000   499.91641     -1.3127884e+08 -4341.5341      1480.207     
   3981000   500.04278     -1.3127915e+08 -4332.2437      1480.2212    
   3982000   499.97399     -1.3127853e+08 -4332.4729      1480.2355    
   3983000   499.95949     -1.3127882e+08 -4337.277       1480.2497    
   3984000   499.98927     -1.3127863e+08 -4345.9098      1480.264     
   3985000   499.92799     -1.3127835e+08 -4343.8277      1480.2782    
   3986000   499.90058     -1.312783e+08  -4340.2462      1480.2925    
   3987000   499.9974      -1.312781e+08  -4334.1204      1480.3067    
   3988000   499.88876     -1.3127725e+08 -4333.8261      1480.3209    
   3989000   499.99333     -1.3127796e+08 -4337.788       1480.3352    
   3990000   499.94124     -1.3127747e+08 -4355.014       1480.3494    
   3991000   500.0758      -1.3127761e+08 -4344.2947      1480.3637    
   3992000   499.98005     -1.3127736e+08 -4344.0311      1480.3779    
   3993000   500.05794     -1.3127768e+08 -4346.5236      1480.3921    
   3994000   500.01371     -1.3127692e+08 -4335.999       1480.4064    
   3995000   499.9817      -1.3127726e+08 -4351.0174      1480.4206    
   3996000   499.91074     -1.3127703e+08 -4360.9205      1480.4349    
   3997000   500.02504     -1.3127688e+08 -4370.0553      1480.4491    
   3998000   500.00988     -1.3127728e+08 -4363.338       1480.4634    
   3999000   499.94755     -1.3127682e+08 -4363.2468      1480.4776    
   4000000   500.04325     -1.3127674e+08 -4355.067       1480.4918    
   4001000   499.9797      -1.312768e+08  -4362.4346      1480.5061    
   4002000   499.95432     -1.3127671e+08 -4367.3683      1480.5203    
   4003000   499.83824     -1.3127595e+08 -4377.0643      1480.5346    
   4004000   499.94851     -1.3127627e+08 -4382.3091      1480.5488    
   4005000   499.87113     -1.3127557e+08 -4367.1819      1480.5631    
   4006000   499.97957     -1.3127638e+08 -4373.9826      1480.5773    
   4007000   500.02935     -1.3127631e+08 -4371.987       1480.5915    
   4008000   499.88034     -1.3127571e+08 -4374.1419      1480.6058    
   4009000   499.91925     -1.3127607e+08 -4381.1835      1480.62      
   4010000   499.98316     -1.3127581e+08 -4381.8139      1480.6343    
   4011000   499.95084     -1.3127484e+08 -4384.3037      1480.6485    
   4012000   500.05738     -1.3127477e+08 -4388.5356      1480.6628    
   4013000   500.03735     -1.312741e+08  -4383.6006      1480.677     
   4014000   500.09592     -1.31274e+08   -4382.4337      1480.6912    
   4015000   500.09241     -1.3127453e+08 -4380.1777      1480.7055    
   4016000   500.17477     -1.3127452e+08 -4374.8925      1480.7197    
   4017000   499.94035     -1.3127436e+08 -4380.2556      1480.734     
   4018000   500.0477      -1.3127446e+08 -4382.7624      1480.7482    
   4019000   500.02687     -1.3127417e+08 -4385.2851      1480.7625    
   4020000   500.00942     -1.3127429e+08 -4396.3673      1480.7767    
   4021000   500.12081     -1.3127437e+08 -4399.807       1480.7909    
   4022000   499.98632     -1.3127416e+08 -4402.7308      1480.8052    
   4023000   500.05044     -1.3127409e+08 -4396.3569      1480.8194    
   4024000   500.09277     -1.3127371e+08 -4412.19        1480.8337    
   4025000   500.04641     -1.3127359e+08 -4413.2194      1480.8479    
   4026000   500.02576     -1.3127304e+08 -4406.166       1480.8621    
   4027000   500.0823      -1.3127327e+08 -4386.7577      1480.8764    
   4028000   500.09216     -1.3127348e+08 -4393.3417      1480.8906    
   4029000   500.02417     -1.3127309e+08 -4407.3408      1480.9049    
   4030000   499.9616      -1.3127291e+08 -4418.3564      1480.9191    
   4031000   499.91902     -1.312723e+08  -4415.8288      1480.9334    
   4032000   499.98918     -1.3127302e+08 -4420.1772      1480.9476    
   4033000   499.80413     -1.3127291e+08 -4412.2068      1480.9618    
   4034000   499.86688     -1.312726e+08  -4416.4817      1480.9761    
   4035000   499.95452     -1.3127301e+08 -4418.3608      1480.9903    
   4036000   499.99013     -1.3127285e+08 -4419.778       1481.0046    
   4037000   500.03924     -1.3127268e+08 -4416.2768      1481.0188    
   4038000   499.95706     -1.312723e+08  -4413.7117      1481.0331    
   4039000   500.0035      -1.3127223e+08 -4413.6856      1481.0473    
   4040000   499.90687     -1.312716e+08  -4428.3943      1481.0615    
   4041000   499.89083     -1.3127127e+08 -4429.4679      1481.0758    
   4042000   500.03371     -1.3127195e+08 -4427.1192      1481.09      
   4043000   499.95262     -1.3127129e+08 -4432.5705      1481.1043    
   4044000   499.95085     -1.3127151e+08 -4443.1412      1481.1185    
   4045000   499.96513     -1.3127111e+08 -4440.3737      1481.1328    
   4046000   499.93649     -1.3127074e+08 -4432.9042      1481.147     
   4047000   500.00026     -1.3127073e+08 -4430.8523      1481.1612    
   4048000   499.99929     -1.3127073e+08 -4425.8712      1481.1755    
   4049000   499.93552     -1.3127062e+08 -4428.678       1481.1897    
   4050000   500.08511     -1.3127101e+08 -4446.5324      1481.204     
   4051000   500.08344     -1.3127091e+08 -4446.2929      1481.2182    
   4052000   499.98632     -1.3127024e+08 -4448.9723      1481.2324    
   4053000   500.10978     -1.3127062e+08 -4441.3781      1481.2467    
   4054000   500.02926     -1.3127029e+08 -4445.1269      1481.2609    
   4055000   500.07104     -1.3126991e+08 -4439.0623      1481.2752    
   4056000   500.06343     -1.3126965e+08 -4449.2613      1481.2894    
   4057000   499.94099     -1.3126992e+08 -4454.0019      1481.3037    
   4058000   499.99175     -1.3126998e+08 -4460.2643      1481.3179    
   4059000   499.99633     -1.3126932e+08 -4450.3456      1481.3321    
   4060000   499.94817     -1.3126954e+08 -4454.0563      1481.3464    
   4061000   499.91926     -1.312696e+08  -4453.8614      1481.3606    
   4062000   500.02731     -1.3126989e+08 -4462.2383      1481.3749    
   4063000   499.94188     -1.3126918e+08 -4476.3256      1481.3891    
   4064000   499.94113     -1.3126859e+08 -4476.1329      1481.4034    
