LAMMPS (23 Jun 2022)
KOKKOS mode is enabled (src/KOKKOS/kokkos.cpp:105)
  will use up to 4 GPU(s) per node
  using 1 OpenMP thread(s) per MPI task
package kokkos
package kokkos neigh half newton off
#LAMMPS input file

# ------------------------ INITIALIZATION ----------------------------
processors    * * *
units         metal
dimension    3
boundary    p    p    p
atom_style   charge
atom_modify map array sort 0 1

#--------------------------- LAMMPS Data File--------------------------

read_data    relaxed_step.lmp #reset_relaxed.lmp # model_4.lmp # pre_strained.lmp # High_sep_Cu_45.lmp # Cu_111_FR_45_MIN.lmp
Reading data file ...
  orthogonal box = (-314.8477 -522.43942 600) to (1109.3869 540.14923 1100)
  4 by 4 by 2 MPI processor grid
  reading atoms ...
  37948320 atoms
  reading velocities ...
  37948320 velocities
  read_data CPU = 134.393 seconds
#read_dump   dump.min_1862000.lammpstrj 1862000 x y z vx vy vz
variable  temp equal 150
variable  temp_init equal ${temp}*2
variable  temp_init equal 150*2
variable  sratex equal 5e-6 # in 1/ps (0.5 strain after 10ns)
# ------------------------ FORCE FIELDS ------------------------------
pair_style    eam/alloy
pair_coeff    * * Cu01.eam.alloy.txt Cu # Cu

#------------------------- SETTINGS ---------------------------------

#change_box        all x scale 1.015 remap units box

compute csym all centro/atom fcc
#compute peratom all pe/atom

# compute stresses
#compute       sf all stress/atom NULL

#-------------For Lorentz Forces from QEq----------------------------
# Apply forces
#variable qfx atomfile input_fx_new.txt
#variable qfy atomfile input_fy_new.txt
#variable qfz atomfile input_fz_new.txt
#variable qe atom  -(x*v_qfx+y*v_qfy+z*v_qfz)

#fix force_q1 all addforce v_qfx v_qfy v_qfz energy v_qe
#fix_modify force_q1 energy yes

#delete_atoms group exclude
#fix freez hold setforce 0 0 0
#fix_modify force_q2 energy yes
thermo 1000
thermo_style custom step temp pe press lx
thermo_modify flush yes
#min_style fire
#minimize 0.0 1e-4 100000 100000
#--------Thermal Relax---------------------------
velocity all create ${temp_init} 200 rot no dist gaussian
velocity all create 300 200 rot no dist gaussian
timestep  0.002
fix 1 all langevin ${temp} ${temp} 5 200
fix 1 all langevin 150 ${temp} 5 200
fix 1 all langevin 150 150 5 200
fix ensemble all nve
run 50000
Neighbor list info ...
  update every 1 steps, delay 10 steps, check yes
  max neighbors/atom: 2000, page size: 100000
  master list distance cutoff = 7.506786
  ghost atom cutoff = 7.506786
  binsize = 7.506786, bins = 190 142 67
  2 neighbor lists, perpetual/occasional/extra = 1 1 0
  (1) pair eam/alloy/kk, perpetual
      attributes: half, newton off, kokkos_device
      pair build: half/bin/kk/device
      stencil: full/bin/3d
      bin: kk/device
  (2) compute centro/atom, occasional
      attributes: full, newton off
      pair build: full/bin/atomonly
      stencil: full/bin/3d
      bin: standard
Per MPI rank memory allocation (min/avg/max) = 419 | 460.3 | 502.1 Mbytes
   Step          Temp          PotEng         Press            Lx      
         0   300           -1.3404495e+08  1734.3562      1424.2346    
      1000   150.12399     -1.3331005e+08  2970.1891      1424.2346    
      2000   149.61355     -1.3330715e+08  1030.6273      1424.2346    
      3000   149.06217     -1.3330182e+08 -602.02453      1424.2346    
      4000   149.7258      -1.3330263e+08  162.18305      1424.2346    
      5000   150.10057     -1.3330435e+08  1072.4216      1424.2346    
      6000   150.19156     -1.3330556e+08  1898.0703      1424.2346    
      7000   150.07607     -1.3330537e+08  1610.9978      1424.2346    
      8000   149.90565     -1.3330471e+08  1106.6434      1424.2346    
      9000   149.79199     -1.3330352e+08  626.55099      1424.2346    
     10000   149.88983     -1.3330327e+08  679.85136      1424.2346    
     11000   150.00058     -1.3330366e+08  959.80007      1424.2346    
     12000   150.10197     -1.3330432e+08  1255.6564      1424.2346    
     13000   150.09205     -1.3330461e+08  1312.026       1424.2346    
     14000   150.01362     -1.3330445e+08  1187.3548      1424.2346    
     15000   149.96091     -1.3330427e+08  1034.6102      1424.2346    
     16000   149.9761      -1.3330405e+08  983.74648      1424.2346    
     17000   149.96405     -1.33304e+08    1043.4317      1424.2346    
     18000   150.02791     -1.3330429e+08  1114.1502      1424.2346    
     19000   150.015       -1.3330431e+08  1156.3968      1424.2346    
     20000   150.04614     -1.333044e+08   1120.5351      1424.2346    
     21000   150.02301     -1.333042e+08   1079.9188      1424.2346    
     22000   149.99326     -1.3330419e+08  1046.5385      1424.2346    
     23000   149.99189     -1.3330418e+08  1055.6363      1424.2346    
     24000   150.00269     -1.3330438e+08  1083.4514      1424.2346    
     25000   149.98326     -1.3330421e+08  1103.3815      1424.2346    
     26000   149.98319     -1.3330419e+08  1092.8483      1424.2346    
     27000   149.98577     -1.3330424e+08  1084.7368      1424.2346    
     28000   149.96952     -1.3330421e+08  1079.4103      1424.2346    
     29000   149.98188     -1.3330433e+08  1082.5058      1424.2346    
     30000   150.0088      -1.3330426e+08  1088.4985      1424.2346    
     31000   150.01796     -1.3330419e+08  1097.3571      1424.2346    
     32000   150.03451     -1.3330421e+08  1092.5702      1424.2346    
     33000   150.0167      -1.3330419e+08  1089.1016      1424.2346    
     34000   150.0076      -1.3330416e+08  1085.7146      1424.2346    
     35000   150.00429     -1.3330434e+08  1084.3289      1424.2346    
     36000   149.98196     -1.3330409e+08  1088.3213      1424.2346    
     37000   150.01976     -1.3330421e+08  1091.4348      1424.2346    
     38000   150.03615     -1.3330429e+08  1086.5282      1424.2346    
     39000   150.02937     -1.3330428e+08  1085.2361      1424.2346    
     40000   150.01521     -1.3330424e+08  1087.4946      1424.2346    
     41000   149.98807     -1.3330433e+08  1085.8973      1424.2346    
     42000   149.98607     -1.3330421e+08  1089.6817      1424.2346    
     43000   150.00154     -1.3330428e+08  1086.4448      1424.2346    
     44000   149.98401     -1.333043e+08   1087.1365      1424.2346    
     45000   149.99278     -1.3330411e+08  1090.4864      1424.2346    
     46000   150.01085     -1.3330421e+08  1092.4016      1424.2346    
     47000   149.98805     -1.3330411e+08  1087.4192      1424.2346    
     48000   149.98997     -1.3330424e+08  1084.6455      1424.2346    
     49000   149.99861     -1.3330431e+08  1087.1576      1424.2346    
     50000   149.9935      -1.3330423e+08  1091.6204      1424.2346    
Loop time of 583.272 on 32 procs for 50000 steps with 37948320 atoms

Performance: 14.813 ns/day, 1.620 hours/ns, 85.723 timesteps/s
71.1% CPU use with 32 MPI tasks x 1 OpenMP threads

MPI task timing breakdown:
Section |  min time  |  avg time  |  max time  |%varavg| %total
---------------------------------------------------------------
Pair    | 213.21     | 216.88     | 219.81     |  13.4 | 37.18
Neigh   | 5.1576     | 7.7031     | 11.085     |  65.1 |  1.32
Comm    | 34.669     | 37.06      | 39.592     |  35.3 |  6.35
Output  | 0.011125   | 0.65379    | 1.0086     |  38.8 |  0.11
Modify  | 173.31     | 242.57     | 310.57     | 410.3 | 41.59
Other   |            | 78.41      |            |       | 13.44

Nlocal:    1.18588e+06 ave 1.50818e+06 max      852431 min
Histogram: 16 0 0 0 0 0 0 0 0 16
Nghost:         185743 ave      218582 max      152051 min
Histogram: 16 0 0 0 0 0 0 0 0 16
Neighs:    8.48006e+07 ave 1.07851e+08 max 6.09525e+07 min
Histogram: 16 0 0 0 0 0 0 0 0 16
FullNghs:            0 ave           0 max           0 min
Histogram: 32 0 0 0 0 0 0 0 0 0

Total # of neighbors = 2.713618e+09
Ave neighs/atom = 71.508251
Neighbor list builds = 194
Dangerous builds = 0
unfix ensemble
write_data ${temp}_relaxed_config.lmp
write_data 150_relaxed_config.lmp
System init for write_data ...
#unfix freez
######################################
## NVT Langevin ##
#variable a loop 50
#label loop

#variable Ti equal ${temp}+($a-1)*4
#variable Tf equal ${temp}+$a*4
#reset_ids
#change_box all x scale ${eps} remap units box
fix        2 all deform 1 x erate ${sratex} units box remap x
fix        2 all deform 1 x erate 5e-06 units box remap x
#fix 1 all langevin ${temp} ${temp} 5 98

# Write dump file
#dump        shear all custom 500000 dump.min_*.lammpstrj id x y z # vx vy vz

#dump        defect all custom 100 dump.defect_*.lammpstrj id x y z c_csym
#dump_modify defect thresh c_csym <= 10 thresh c_csym > 4

fix         ensemble all nve
run 5000000
Per MPI rank memory allocation (min/avg/max) = 419 | 460.3 | 502.1 Mbytes
   Step          Temp          PotEng         Press            Lx      
     50000   149.9935      -1.3330423e+08  1091.6204      1424.2346    
     51000   149.97691     -1.3330428e+08  1077.3105      1424.2488    
     52000   149.99503     -1.3330425e+08  1075.2878      1424.2631    
     53000   150.00418     -1.3330435e+08  1072.9408      1424.2773    
     54000   150.00673     -1.3330425e+08  1072.1342      1424.2915    
     55000   149.99509     -1.3330413e+08  1068.9944      1424.3058    
     56000   149.98951     -1.3330417e+08  1069.8612      1424.32      
     57000   149.98274     -1.3330412e+08  1067.7475      1424.3343    
     58000   149.98718     -1.3330425e+08  1063.5132      1424.3485    
     59000   150.00066     -1.3330439e+08  1057.8369      1424.3628    
     60000   150.01052     -1.3330419e+08  1057.1445      1424.377     
     61000   149.97933     -1.33304e+08    1059.4653      1424.3912    
     62000   150.03683     -1.3330408e+08  1054.5981      1424.4055    
     63000   150.00443     -1.3330402e+08  1047.1378      1424.4197    
     64000   149.98954     -1.3330421e+08  1042.3057      1424.434     
     65000   149.94729     -1.3330406e+08  1041.6381      1424.4482    
     66000   149.98396     -1.333043e+08   1036.0531      1424.4625    
     67000   150.01295     -1.3330446e+08  1033.0687      1424.4767    
     68000   149.97526     -1.3330419e+08  1032.716       1424.4909    
     69000   149.98423     -1.3330425e+08  1033.3089      1424.5052    
     70000   149.95751     -1.3330426e+08  1028.7421      1424.5194    
     71000   149.95987     -1.3330432e+08  1018.6625      1424.5337    
     72000   149.96754     -1.3330423e+08  1015.0004      1424.5479    
     73000   149.97077     -1.3330426e+08  1014.556       1424.5622    
     74000   149.99138     -1.3330429e+08  1018.8269      1424.5764    
     75000   149.98813     -1.3330431e+08  1012.1654      1424.5906    
     76000   149.99398     -1.3330419e+08  1009.1563      1424.6049    
     77000   149.97661     -1.3330418e+08  1010.0438      1424.6191    
     78000   150.01172     -1.3330417e+08  1010.8377      1424.6334    
     79000   150.00623     -1.3330418e+08  1005.6446      1424.6476    
     80000   149.99499     -1.333042e+08   999.35612      1424.6618    
     81000   149.99103     -1.3330422e+08  994.3597       1424.6761    
     82000   149.98931     -1.3330419e+08  995.94283      1424.6903    
     83000   149.9737      -1.3330417e+08  993.94115      1424.7046    
     84000   150.00499     -1.3330427e+08  995.11521      1424.7188    
     85000   150.00447     -1.3330417e+08  991.11106      1424.7331    
     86000   150.0184      -1.3330412e+08  991.23049      1424.7473    
     87000   150.0082      -1.3330415e+08  980.39783      1424.7615    
     88000   150.00231     -1.3330414e+08  969.13387      1424.7758    
     89000   150.01828     -1.3330412e+08  969.40626      1424.79      
     90000   149.98592     -1.33304e+08    972.46435      1424.8043    
     91000   150.04839     -1.3330415e+08  978.51195      1424.8185    
     92000   150.02176     -1.3330407e+08  968.84169      1424.8328    
     93000   150.00238     -1.3330387e+08  957.94773      1424.847     
     94000   149.99684     -1.3330381e+08  953.39341      1424.8612    
     95000   150.03938     -1.33304e+08    954.62892      1424.8755    
     96000   150.04061     -1.3330417e+08  961.3362       1424.8897    
     97000   150.01379     -1.333042e+08   953.64194      1424.904     
     98000   149.96723     -1.3330422e+08  952.19488      1424.9182    
     99000   149.99706     -1.3330431e+08  941.18477      1424.9325    
    100000   149.98543     -1.3330423e+08  939.83159      1424.9467    
    101000   149.98311     -1.3330398e+08  940.27723      1424.9609    
    102000   149.98227     -1.3330395e+08  936.57563      1424.9752    
    103000   149.99677     -1.3330401e+08  931.00528      1424.9894    
    104000   149.99419     -1.3330401e+08  929.64716      1425.0037    
    105000   150.02247     -1.3330403e+08  933.74194      1425.0179    
    106000   150.0022      -1.3330395e+08  931.34359      1425.0322    
    107000   150.0147      -1.3330393e+08  929.223        1425.0464    
    108000   149.99538     -1.3330384e+08  917.37979      1425.0606    
    109000   149.99065     -1.3330389e+08  909.61714      1425.0749    
    110000   149.99732     -1.333039e+08   912.33759      1425.0891    
    111000   150.01414     -1.3330395e+08  911.48291      1425.1034    
    112000   149.99937     -1.3330401e+08  906.90687      1425.1176    
    113000   150.01368     -1.3330408e+08  904.80258      1425.1318    
    114000   150.00445     -1.3330414e+08  902.8386       1425.1461    
    115000   149.97917     -1.3330397e+08  898.01177      1425.1603    
    116000   149.99282     -1.3330395e+08  896.81377      1425.1746    
    117000   149.96972     -1.3330387e+08  895.93357      1425.1888    
    118000   150.01849     -1.3330411e+08  899.9818       1425.2031    
    119000   150.0214      -1.3330402e+08  896.01467      1425.2173    
    120000   150.02414     -1.3330408e+08  895.20782      1425.2315    
    121000   150.03185     -1.3330402e+08  885.04445      1425.2458    
    122000   150.00639     -1.3330388e+08  881.2357       1425.26      
    123000   149.99699     -1.3330389e+08  872.46548      1425.2743    
    124000   149.998       -1.3330395e+08  876.80795      1425.2885    
    125000   150.00975     -1.3330402e+08  872.43777      1425.3028    
    126000   150.03435     -1.3330394e+08  874.44537      1425.317     
    127000   150.00083     -1.333037e+08   872.62522      1425.3312    
    128000   149.99687     -1.3330394e+08  865.71842      1425.3455    
    129000   149.97907     -1.3330392e+08  863.624        1425.3597    
    130000   149.99485     -1.33304e+08    862.37705      1425.374     
    131000   149.99283     -1.3330395e+08  857.66287      1425.3882    
    132000   149.97442     -1.3330404e+08  850.68864      1425.4025    
    133000   149.99478     -1.3330389e+08  846.81441      1425.4167    
    134000   150.01365     -1.3330413e+08  838.74816      1425.4309    
    135000   149.98227     -1.3330362e+08  852.67968      1425.4452    
    136000   150.01491     -1.3330386e+08  847.79368      1425.4594    
    137000   150.01532     -1.3330392e+08  842.25272      1425.4737    
    138000   150.00603     -1.3330384e+08  836.81753      1425.4879    
    139000   149.99974     -1.3330365e+08  835.19533      1425.5021    
    140000   149.99679     -1.3330369e+08  831.65683      1425.5164    
    141000   149.98599     -1.3330391e+08  831.60923      1425.5306    
    142000   150.00584     -1.3330395e+08  824.671        1425.5449    
    143000   149.97519     -1.3330373e+08  829.64588      1425.5591    
    144000   150.01663     -1.3330381e+08  824.06134      1425.5734    
    145000   150.00081     -1.3330382e+08  817.52799      1425.5876    
    146000   150.01998     -1.3330371e+08  819.64917      1425.6018    
    147000   149.9724      -1.3330365e+08  818.72427      1425.6161    
    148000   150.01834     -1.3330366e+08  816.08932      1425.6303    
    149000   150.00997     -1.3330378e+08  804.72619      1425.6446    
    150000   150.00311     -1.3330353e+08  803.69862      1425.6588    
    151000   150.01929     -1.333037e+08   797.21201      1425.6731    
    152000   150.0012      -1.3330365e+08  795.95937      1425.6873    
    153000   150.02428     -1.333037e+08   797.10609      1425.7015    
    154000   150.02402     -1.3330368e+08  792.73903      1425.7158    
    155000   150.04263     -1.3330362e+08  793.16906      1425.73      
    156000   150.00794     -1.3330364e+08  782.16128      1425.7443    
    157000   150.02435     -1.3330366e+08  780.26101      1425.7585    
    158000   149.99597     -1.3330363e+08  783.47016      1425.7728    
    159000   149.99684     -1.3330366e+08  782.21638      1425.787     
    160000   150.00222     -1.3330365e+08  781.49432      1425.8012    
    161000   150.02532     -1.3330366e+08  773.34469      1425.8155    
    162000   149.98342     -1.3330354e+08  765.41351      1425.8297    
    163000   149.97302     -1.3330381e+08  755.89338      1425.844     
    164000   149.99389     -1.3330368e+08  758.60499      1425.8582    
    165000   150.01331     -1.333037e+08   752.75258      1425.8724    
    166000   149.96864     -1.333037e+08   756.53775      1425.8867    
    167000   149.98199     -1.3330372e+08  756.22798      1425.9009    
    168000   149.98048     -1.3330357e+08  757.15483      1425.9152    
    169000   150.02327     -1.3330365e+08  744.91343      1425.9294    
    170000   150.01305     -1.333037e+08   736.03748      1425.9437    
    171000   150.00036     -1.3330366e+08  733.81876      1425.9579    
    172000   150.0086      -1.3330369e+08  742.96426      1425.9721    
    173000   150.0016      -1.3330364e+08  737.61849      1425.9864    
    174000   149.98821     -1.3330354e+08  735.02766      1426.0006    
    175000   150.00808     -1.3330362e+08  728.51557      1426.0149    
    176000   150.01435     -1.333037e+08   730.30681      1426.0291    
    177000   150.02814     -1.3330377e+08  728.09518      1426.0434    
    178000   150.01312     -1.3330372e+08  726.02267      1426.0576    
    179000   149.9677      -1.333037e+08   713.82088      1426.0718    
    180000   149.97736     -1.3330374e+08  712.98463      1426.0861    
    181000   150.00029     -1.3330376e+08  704.99712      1426.1003    
    182000   149.97706     -1.3330353e+08  708.43859      1426.1146    
    183000   150.01725     -1.3330354e+08  703.29659      1426.1288    
    184000   150.02301     -1.3330339e+08  708.62248      1426.1431    
    185000   150.05425     -1.3330345e+08  704.85434      1426.1573    
    186000   150.0138      -1.3330353e+08  700.18818      1426.1715    
    187000   150.02902     -1.3330347e+08  698.51249      1426.1858    
    188000   150.00384     -1.3330342e+08  695.89427      1426.2       
    189000   150.00863     -1.3330354e+08  689.94491      1426.2143    
    190000   149.99237     -1.3330335e+08  689.29368      1426.2285    
    191000   150.02313     -1.333035e+08   686.73108      1426.2428    
    192000   150.01059     -1.3330354e+08  682.70794      1426.257     
    193000   150.0066      -1.3330351e+08  682.30544      1426.2712    
    194000   150.00471     -1.333035e+08   677.04881      1426.2855    
    195000   149.98921     -1.3330346e+08  675.7226       1426.2997    
    196000   149.99676     -1.3330351e+08  671.56189      1426.314     
    197000   149.99267     -1.3330358e+08  669.81903      1426.3282    
    198000   149.98965     -1.3330358e+08  671.96516      1426.3424    
    199000   149.96678     -1.3330353e+08  666.37257      1426.3567    
    200000   149.98314     -1.3330355e+08  657.97953      1426.3709    
    201000   149.97734     -1.3330338e+08  653.73444      1426.3852    
    202000   150.00717     -1.3330343e+08  654.59354      1426.3994    
    203000   149.99126     -1.3330349e+08  651.22354      1426.4137    
    204000   149.98908     -1.3330348e+08  651.00575      1426.4279    
    205000   149.98359     -1.3330339e+08  651.70794      1426.4421    
    206000   149.98028     -1.333033e+08   649.3563       1426.4564    
    207000   150.01832     -1.3330328e+08  642.4289       1426.4706    
    208000   150.02422     -1.3330334e+08  632.74604      1426.4849    
    209000   149.99049     -1.3330326e+08  632.8361       1426.4991    
    210000   149.97913     -1.333033e+08   633.65844      1426.5134    
    211000   149.98203     -1.3330327e+08  635.0966       1426.5276    
    212000   150.00957     -1.3330347e+08  630.27291      1426.5418    
    213000   149.99527     -1.3330329e+08  629.92534      1426.5561    
    214000   149.9993      -1.3330326e+08  626.32401      1426.5703    
    215000   149.97949     -1.3330327e+08  623.80869      1426.5846    
    216000   150.03096     -1.3330337e+08  619.65718      1426.5988    
    217000   149.99538     -1.333031e+08   617.17148      1426.6131    
    218000   150.01461     -1.3330328e+08  610.54174      1426.6273    
    219000   150.01383     -1.333034e+08   608.05211      1426.6415    
    220000   149.99169     -1.333032e+08   605.16597      1426.6558    
    221000   150.0148      -1.333033e+08   600.38219      1426.67      
    222000   150.00179     -1.3330327e+08  601.78647      1426.6843    
    223000   150.02843     -1.3330336e+08  596.81295      1426.6985    
    224000   150.0217      -1.3330318e+08  594.97009      1426.7127    
    225000   150.0044      -1.3330307e+08  594.65968      1426.727     
    226000   149.99475     -1.3330323e+08  593.29849      1426.7412    
    227000   149.98144     -1.3330317e+08  590.51616      1426.7555    
    228000   150.00991     -1.3330335e+08  586.77816      1426.7697    
    229000   149.96632     -1.3330326e+08  584.56257      1426.784     
    230000   149.98655     -1.3330335e+08  573.52208      1426.7982    
    231000   149.95547     -1.3330324e+08  574.88121      1426.8124    
    232000   149.97293     -1.3330337e+08  573.23922      1426.8267    
    233000   149.9861      -1.3330341e+08  565.62827      1426.8409    
    234000   149.9851      -1.3330327e+08  562.07974      1426.8552    
    235000   150.0018      -1.3330316e+08  559.63959      1426.8694    
    236000   149.96311     -1.3330298e+08  560.575        1426.8837    
    237000   149.96271     -1.3330314e+08  566.63703      1426.8979    
    238000   150.00285     -1.3330332e+08  567.62258      1426.9121    
    239000   149.98814     -1.3330313e+08  563.02964      1426.9264    
    240000   149.9983      -1.333032e+08   554.00821      1426.9406    
    241000   149.99601     -1.3330314e+08  546.28367      1426.9549    
    242000   149.98472     -1.3330305e+08  544.0424       1426.9691    
    243000   150.01121     -1.3330312e+08  550.03715      1426.9834    
    244000   149.98925     -1.3330313e+08  552.61194      1426.9976    
    245000   149.99258     -1.3330315e+08  549.10075      1427.0118    
    246000   149.98015     -1.3330308e+08  541.93191      1427.0261    
    247000   149.98446     -1.3330307e+08  528.77613      1427.0403    
    248000   149.97857     -1.3330308e+08  524.11918      1427.0546    
    249000   150.01413     -1.3330327e+08  519.37862      1427.0688    
    250000   150.01753     -1.3330311e+08  521.01677      1427.083     
    251000   150.01618     -1.3330289e+08  518.69408      1427.0973    
    252000   150.03        -1.3330292e+08  517.15849      1427.1115    
    253000   150.04997     -1.3330283e+08  517.23219      1427.1258    
    254000   150.0272      -1.3330284e+08  517.58165      1427.14      
    255000   150.01107     -1.333029e+08   509.4972       1427.1543    
    256000   150.02696     -1.3330292e+08  501.67176      1427.1685    
    257000   150.0287      -1.3330288e+08  504.33108      1427.1827    
    258000   149.9852      -1.3330283e+08  501.67357      1427.197     
    259000   150.01491     -1.3330284e+08  497.80265      1427.2112    
    260000   150.03558     -1.3330301e+08  496.29821      1427.2255    
    261000   149.9994      -1.3330288e+08  491.02698      1427.2397    
    262000   150.02617     -1.333029e+08   487.00892      1427.254     
    263000   150.00166     -1.3330292e+08  479.29095      1427.2682    
    264000   150.01596     -1.3330286e+08  489.29588      1427.2824    
    265000   150.01948     -1.3330284e+08  488.25155      1427.2967    
    266000   150.04912     -1.3330288e+08  488.67631      1427.3109    
    267000   150.01898     -1.3330272e+08  480.85244      1427.3252    
    268000   150.01458     -1.3330267e+08  473.95953      1427.3394    
    269000   149.97497     -1.3330271e+08  468.41033      1427.3537    
    270000   150.00146     -1.3330286e+08  464.08985      1427.3679    
    271000   150.0026      -1.3330286e+08  461.31204      1427.3821    
    272000   149.9922      -1.3330289e+08  462.36379      1427.3964    
    273000   150.00829     -1.3330282e+08  461.30893      1427.4106    
    274000   150.0273      -1.3330288e+08  463.53496      1427.4249    
    275000   150.02775     -1.3330286e+08  454.07525      1427.4391    
    276000   150.00821     -1.3330279e+08  447.89064      1427.4533    
    277000   149.97917     -1.3330276e+08  443.5208       1427.4676    
    278000   150.00705     -1.3330279e+08  446.4628       1427.4818    
    279000   149.99216     -1.3330274e+08  448.90173      1427.4961    
    280000   150.02597     -1.3330272e+08  444.73403      1427.5103    
    281000   150.02685     -1.3330254e+08  435.66153      1427.5246    
    282000   150.03687     -1.333027e+08   435.31506      1427.5388    
    283000   149.98298     -1.3330251e+08  424.33476      1427.553     
    284000   150.02143     -1.3330281e+08  427.02666      1427.5673    
    285000   149.98183     -1.3330271e+08  424.83276      1427.5815    
    286000   149.98252     -1.3330272e+08  424.24792      1427.5958    
    287000   149.97903     -1.3330266e+08  419.57266      1427.61      
    288000   149.99819     -1.3330252e+08  412.18768      1427.6243    
    289000   150.00625     -1.3330268e+08  408.51523      1427.6385    
    290000   150.00469     -1.3330257e+08  409.73217      1427.6527    
    291000   150.02418     -1.3330258e+08  417.4504       1427.667     
    292000   149.99874     -1.3330267e+08  414.43351      1427.6812    
    293000   149.99016     -1.3330259e+08  409.96005      1427.6955    
    294000   150.00144     -1.3330264e+08  396.12419      1427.7097    
    295000   149.97929     -1.3330257e+08  393.50346      1427.724     
    296000   150.0153      -1.3330267e+08  392.44685      1427.7382    
    297000   149.98601     -1.3330258e+08  395.91887      1427.7524    
    298000   150.01008     -1.3330272e+08  391.84967      1427.7667    
    299000   150.00928     -1.3330262e+08  381.53407      1427.7809    
    300000   150.02668     -1.3330252e+08  378.81426      1427.7952    
    301000   150.02524     -1.3330237e+08  380.8045       1427.8094    
    302000   150.02807     -1.3330249e+08  381.2301       1427.8237    
    303000   149.9858      -1.3330248e+08  378.50536      1427.8379    
    304000   150.01394     -1.3330255e+08  373.97161      1427.8521    
    305000   149.99968     -1.3330249e+08  374.24532      1427.8664    
    306000   149.95852     -1.3330263e+08  370.46794      1427.8806    
    307000   149.96798     -1.3330259e+08  372.14686      1427.8949    
    308000   149.96114     -1.3330243e+08  363.27504      1427.9091    
    309000   149.9982      -1.3330243e+08  358.78118      1427.9233    
    310000   149.99537     -1.3330217e+08  354.39266      1427.9376    
    311000   149.99989     -1.3330231e+08  353.57069      1427.9518    
    312000   150.01117     -1.3330227e+08  354.35962      1427.9661    
    313000   149.99781     -1.3330245e+08  352.20322      1427.9803    
    314000   150.01944     -1.3330235e+08  347.71289      1427.9946    
    315000   150.01002     -1.3330238e+08  341.92325      1428.0088    
    316000   149.97982     -1.3330234e+08  333.91297      1428.023     
    317000   150.00247     -1.3330239e+08  337.77673      1428.0373    
    318000   149.982       -1.3330234e+08  334.44542      1428.0515    
    319000   149.9876      -1.3330236e+08  339.9445       1428.0658    
    320000   149.95614     -1.3330224e+08  334.32277      1428.08      
    321000   149.98491     -1.3330223e+08  328.5805       1428.0943    
    322000   149.9892      -1.3330248e+08  324.51129      1428.1085    
    323000   149.94587     -1.3330239e+08  318.58808      1428.1227    
    324000   149.9867      -1.3330236e+08  312.64518      1428.137     
    325000   149.9655      -1.3330218e+08  309.65763      1428.1512    
    326000   150.01685     -1.3330218e+08  312.177        1428.1655    
    327000   150.00347     -1.3330226e+08  311.26694      1428.1797    
    328000   149.99275     -1.3330212e+08  313.30331      1428.194     
    329000   150.03592     -1.333023e+08   305.75598      1428.2082    
    330000   149.99152     -1.333023e+08   296.38089      1428.2224    
    331000   149.97448     -1.3330212e+08  293.9124       1428.2367    
    332000   149.98487     -1.3330215e+08  302.50974      1428.2509    
    333000   150.01436     -1.3330208e+08  297.9135       1428.2652    
    334000   150.02147     -1.3330217e+08  294.55551      1428.2794    
    335000   150.01607     -1.3330225e+08  286.8793       1428.2936    
    336000   149.9948      -1.3330211e+08  286.52375      1428.3079    
    337000   149.99806     -1.3330199e+08  281.99459      1428.3221    
    338000   150.02019     -1.3330215e+08  280.55575      1428.3364    
    339000   149.98196     -1.333021e+08   273.16556      1428.3506    
    340000   150.01576     -1.3330225e+08  271.92223      1428.3649    
    341000   149.99162     -1.3330202e+08  268.99731      1428.3791    
    342000   149.9934      -1.3330209e+08  266.91304      1428.3933    
    343000   149.98766     -1.333022e+08   266.87457      1428.4076    
    344000   149.96713     -1.3330208e+08  268.77176      1428.4218    
    345000   149.9784      -1.3330208e+08  265.72298      1428.4361    
    346000   150.00364     -1.3330209e+08  254.9768       1428.4503    
    347000   149.97486     -1.3330186e+08  249.76679      1428.4646    
    348000   149.9883      -1.3330184e+08  246.02418      1428.4788    
    349000   150.01009     -1.3330186e+08  249.77469      1428.493     
    350000   150.02474     -1.3330184e+08  246.41998      1428.5073    
    351000   150.01096     -1.3330191e+08  243.75751      1428.5215    
    352000   150.02187     -1.3330185e+08  236.66841      1428.5358    
    353000   150.00371     -1.3330179e+08  232.13518      1428.55      
    354000   150.01152     -1.3330182e+08  231.39833      1428.5643    
    355000   150.01688     -1.3330197e+08  234.49085      1428.5785    
    356000   150.01321     -1.3330185e+08  228.57274      1428.5927    
    357000   150.03908     -1.3330168e+08  226.31531      1428.607     
    358000   150.04086     -1.3330178e+08  226.99294      1428.6212    
    359000   150.0483      -1.3330186e+08  226.22502      1428.6355    
    360000   150.04475     -1.3330175e+08  224.25715      1428.6497    
    361000   150.01729     -1.3330167e+08  214.1461       1428.6639    
    362000   150.02932     -1.3330173e+08  208.08564      1428.6782    
    363000   149.99611     -1.3330162e+08  206.67193      1428.6924    
    364000   150.0254      -1.3330178e+08  206.92048      1428.7067    
    365000   150.00935     -1.3330171e+08  209.85882      1428.7209    
    366000   149.9978      -1.3330146e+08  206.89098      1428.7352    
    367000   150.0102      -1.3330145e+08  195.94244      1428.7494    
    368000   150.0156      -1.3330153e+08  194.60725      1428.7636    
    369000   150.00445     -1.3330172e+08  192.31989      1428.7779    
    370000   150.00345     -1.3330176e+08  186.73808      1428.7921    
    371000   149.97445     -1.3330186e+08  191.87138      1428.8064    
    372000   149.99933     -1.3330192e+08  189.75622      1428.8206    
    373000   149.98946     -1.3330181e+08  189.17457      1428.8349    
    374000   149.9715      -1.3330163e+08  182.5144       1428.8491    
    375000   149.98178     -1.3330159e+08  172.43459      1428.8633    
    376000   149.97411     -1.333017e+08   167.36937      1428.8776    
    377000   149.98915     -1.333017e+08   171.94286      1428.8918    
    378000   150.01863     -1.3330164e+08  172.44828      1428.9061    
    379000   150.03449     -1.3330159e+08  170.18304      1428.9203    
    380000   150.00117     -1.3330143e+08  162.53719      1428.9346    
    381000   149.99118     -1.3330136e+08  159.76959      1428.9488    
    382000   149.98619     -1.3330135e+08  155.13703      1428.963     
    383000   150.01673     -1.3330149e+08  159.11022      1428.9773    
    384000   149.99752     -1.3330146e+08  154.26713      1428.9915    
    385000   149.99408     -1.3330147e+08  155.82043      1429.0058    
    386000   149.96208     -1.3330137e+08  148.04159      1429.02      
    387000   149.96883     -1.3330136e+08  145.42484      1429.0343    
    388000   149.99765     -1.3330146e+08  143.64674      1429.0485    
    389000   150.00866     -1.3330145e+08  145.72104      1429.0627    
    390000   150.028       -1.3330146e+08  139.94386      1429.077     
    391000   150.04827     -1.3330138e+08  139.71871      1429.0912    
    392000   150.03554     -1.3330123e+08  134.72123      1429.1055    
    393000   150.04587     -1.3330127e+08  130.04877      1429.1197    
    394000   150.0147      -1.3330134e+08  127.81416      1429.1339    
    395000   150.02334     -1.3330145e+08  124.09221      1429.1482    
    396000   149.97671     -1.3330127e+08  125.47383      1429.1624    
    397000   149.99249     -1.3330152e+08  122.12038      1429.1767    
    398000   149.98221     -1.3330143e+08  118.70312      1429.1909    
    399000   149.98447     -1.3330144e+08  113.72975      1429.2052    
    400000   150.00948     -1.3330132e+08  108.55268      1429.2194    
    401000   150.01505     -1.333013e+08   106.55734      1429.2336    
    402000   149.98853     -1.333012e+08   104.34252      1429.2479    
    403000   150.00073     -1.3330119e+08  105.77136      1429.2621    
    404000   150.02555     -1.3330109e+08  98.021314      1429.2764    
    405000   149.99255     -1.3330101e+08  95.925599      1429.2906    
    406000   150.02161     -1.3330111e+08  83.732823      1429.3049    
    407000   150.00101     -1.3330109e+08  89.666257      1429.3191    
    408000   149.99977     -1.3330104e+08  87.045631      1429.3333    
    409000   150.02501     -1.3330099e+08  91.398417      1429.3476    
    410000   150.02014     -1.3330109e+08  83.628041      1429.3618    
    411000   150.00465     -1.3330104e+08  77.547162      1429.3761    
    412000   149.97397     -1.3330108e+08  70.219966      1429.3903    
    413000   150.0109      -1.3330113e+08  73.419984      1429.4046    
    414000   149.98446     -1.3330102e+08  76.309777      1429.4188    
    415000   149.9907      -1.3330109e+08  76.019123      1429.433     
    416000   149.99651     -1.3330106e+08  69.757385      1429.4473    
    417000   150.00444     -1.3330099e+08  66.745775      1429.4615    
    418000   150.00336     -1.3330103e+08  55.573169      1429.4758    
    419000   150.00762     -1.33301e+08    55.085292      1429.49      
    420000   150.00951     -1.3330106e+08  58.335121      1429.5042    
    421000   150.00919     -1.3330097e+08  63.280138      1429.5185    
    422000   150.02863     -1.3330102e+08  53.595272      1429.5327    
    423000   149.99739     -1.3330095e+08  45.424673      1429.547     
    424000   150.01144     -1.3330095e+08  38.35633       1429.5612    
    425000   149.99478     -1.3330094e+08  41.472654      1429.5755    
    426000   149.97413     -1.3330094e+08  37.588284      1429.5897    
    427000   149.97529     -1.333009e+08   38.171105      1429.6039    
    428000   150.01017     -1.3330085e+08  38.318104      1429.6182    
    429000   150.02596     -1.3330094e+08  31.294228      1429.6324    
    430000   149.98548     -1.333009e+08   29.001748      1429.6467    
    431000   150.01124     -1.3330099e+08  22.958255      1429.6609    
    432000   149.97674     -1.3330089e+08  18.877564      1429.6752    
    433000   149.98806     -1.3330081e+08  13.640722      1429.6894    
    434000   150.02266     -1.3330086e+08  17.215275      1429.7036    
    435000   149.99636     -1.3330079e+08  21.127737      1429.7179    
    436000   150.01286     -1.3330092e+08  16.717523      1429.7321    
    437000   150.01065     -1.3330076e+08  13.733395      1429.7464    
    438000   149.99999     -1.3330075e+08  4.7123262      1429.7606    
    439000   149.95952     -1.3330068e+08 -2.1658211      1429.7749    
    440000   149.95611     -1.3330065e+08 -3.8968571      1429.7891    
    441000   149.99575     -1.3330065e+08 -3.5059183      1429.8033    
    442000   150.04114     -1.3330061e+08 -3.0164289      1429.8176    
    443000   150.04342     -1.3330063e+08 -4.2824285      1429.8318    
    444000   150.02564     -1.3330061e+08 -8.1099636      1429.8461    
    445000   149.98184     -1.3330057e+08 -17.067864      1429.8603    
    446000   149.99701     -1.3330063e+08 -13.910197      1429.8745    
    447000   149.96951     -1.3330051e+08 -13.711954      1429.8888    
    448000   150.01112     -1.3330053e+08 -17.382596      1429.903     
    449000   149.9837      -1.3330043e+08 -24.149527      1429.9173    
    450000   150.017       -1.3330053e+08 -26.812123      1429.9315    
    451000   149.99442     -1.3330054e+08 -27.958257      1429.9458    
    452000   149.98545     -1.3330059e+08 -24.755229      1429.96      
    453000   149.98404     -1.3330061e+08 -32.398394      1429.9742    
    454000   150.0003      -1.3330061e+08 -33.0999        1429.9885    
    455000   149.99627     -1.3330055e+08 -43.503174      1430.0027    
    456000   149.99385     -1.3330052e+08 -44.361494      1430.017     
    457000   149.98075     -1.3330047e+08 -50.27276       1430.0312    
    458000   149.98729     -1.3330038e+08 -50.150705      1430.0455    
    459000   149.99343     -1.3330033e+08 -45.283369      1430.0597    
    460000   150.00307     -1.3330044e+08 -47.321853      1430.0739    
    461000   150.02154     -1.3330028e+08 -53.700627      1430.0882    
    462000   150.00944     -1.333003e+08  -63.664614      1430.1024    
    463000   150.003       -1.3330019e+08 -66.003298      1430.1167    
    464000   150.00733     -1.333002e+08  -72.51931       1430.1309    
    465000   150.03739     -1.3330019e+08 -70.730117      1430.1452    
    466000   150.0081      -1.3330013e+08 -68.621566      1430.1594    
    467000   150.01705     -1.3330026e+08 -71.203651      1430.1736    
    468000   150.02685     -1.3330013e+08 -74.94134       1430.1879    
    469000   150.01672     -1.3330026e+08 -79.856123      1430.2021    
    470000   149.97519     -1.3330011e+08 -82.363829      1430.2164    
    471000   149.98624     -1.3330009e+08 -89.787765      1430.2306    
    472000   150.00403     -1.333002e+08  -87.923986      1430.2448    
    473000   149.99781     -1.3330003e+08 -90.150611      1430.2591    
    474000   149.9798      -1.3330012e+08 -87.787294      1430.2733    
    475000   150.01434     -1.3329998e+08 -88.445363      1430.2876    
    476000   150.03571     -1.3330007e+08 -90.21516       1430.3018    
    477000   150.03016     -1.333e+08     -103.06507      1430.3161    
    478000   150.00641     -1.333e+08     -105.76915      1430.3303    
    479000   150.00702     -1.3329987e+08 -104.76272      1430.3445    
    480000   150.05299     -1.3330004e+08 -106.27152      1430.3588    
    481000   149.99971     -1.3329987e+08 -108.57071      1430.373     
    482000   150.03082     -1.3330011e+08 -116.19217      1430.3873    
    483000   149.98612     -1.3330005e+08 -117.88115      1430.4015    
    484000   149.9647      -1.3330014e+08 -126.97246      1430.4158    
    485000   149.95604     -1.3330004e+08 -125.20677      1430.43      
    486000   149.97361     -1.3329991e+08 -122.73514      1430.4442    
    487000   150.01139     -1.3330002e+08 -120.9639       1430.4585    
    488000   149.9853      -1.3329989e+08 -127.52725      1430.4727    
    489000   150.01664     -1.3329983e+08 -133.73902      1430.487     
    490000   149.99312     -1.3329979e+08 -135.87527      1430.5012    
    491000   150.01876     -1.3329988e+08 -133.3413       1430.5155    
    492000   150.01316     -1.3329985e+08 -137.0978       1430.5297    
    493000   149.96874     -1.3329979e+08 -140.20454      1430.5439    
    494000   150.00481     -1.3329986e+08 -149.74206      1430.5582    
    495000   149.97978     -1.3329968e+08 -149.78656      1430.5724    
    496000   150.00808     -1.3329973e+08 -150.45855      1430.5867    
    497000   149.98631     -1.3329963e+08 -148.45989      1430.6009    
    498000   149.99756     -1.332998e+08  -160.00571      1430.6152    
    499000   149.96254     -1.332998e+08  -161.30491      1430.6294    
    500000   149.97724     -1.3329984e+08 -164.78942      1430.6436    
    501000   149.99272     -1.3329991e+08 -159.11195      1430.6579    
    502000   150.01358     -1.3329964e+08 -161.46052      1430.6721    
    503000   149.98907     -1.332997e+08  -164.89841      1430.6864    
    504000   150.0018      -1.3329948e+08 -170.58496      1430.7006    
    505000   150.01575     -1.3329958e+08 -180.29687      1430.7148    
    506000   150.01088     -1.3329969e+08 -178.63997      1430.7291    
    507000   150.00042     -1.3329953e+08 -181.97836      1430.7433    
    508000   150.01041     -1.332995e+08  -181.03856      1430.7576    
    509000   149.99566     -1.3329959e+08 -182.30769      1430.7718    
    510000   150.02443     -1.3329958e+08 -193.63382      1430.7861    
    511000   149.99212     -1.3329954e+08 -194.91679      1430.8003    
    512000   150.02949     -1.3329965e+08 -198.61011      1430.8145    
    513000   149.9979      -1.332993e+08  -199.20306      1430.8288    
    514000   150.03073     -1.3329949e+08 -203.75607      1430.843     
    515000   150.01279     -1.3329942e+08 -208.66015      1430.8573    
    516000   150.00372     -1.3329926e+08 -209.68514      1430.8715    
    517000   150.02218     -1.3329938e+08 -208.7537       1430.8858    
    518000   150.00267     -1.3329927e+08 -209.54285      1430.9       
    519000   149.99792     -1.3329936e+08 -202.86809      1430.9142    
    520000   149.99989     -1.3329924e+08 -207.701        1430.9285    
    521000   150.00205     -1.3329938e+08 -211.70035      1430.9427    
    522000   150.00192     -1.3329939e+08 -225.8304       1430.957     
    523000   150.02081     -1.3329939e+08 -221.04871      1430.9712    
    524000   149.98667     -1.3329921e+08 -225.11187      1430.9855    
    525000   150.01387     -1.3329928e+08 -224.91648      1430.9997    
    526000   150.00884     -1.3329932e+08 -230.23221      1431.0139    
    527000   150.02296     -1.3329931e+08 -229.81603      1431.0282    
    528000   149.97183     -1.3329916e+08 -239.29082      1431.0424    
    529000   149.98832     -1.332992e+08  -241.98443      1431.0567    
    530000   150.01393     -1.332992e+08  -247.20929      1431.0709    
    531000   150.02677     -1.3329918e+08 -245.69196      1431.0851    
    532000   149.98804     -1.3329915e+08 -246.29521      1431.0994    
    533000   149.99185     -1.3329907e+08 -247.52146      1431.1136    
    534000   150.03141     -1.3329921e+08 -254.10094      1431.1279    
    535000   149.97603     -1.3329894e+08 -256.87167      1431.1421    
    536000   149.99588     -1.3329907e+08 -259.62131      1431.1564    
    537000   150.00606     -1.3329901e+08 -259.0614       1431.1706    
    538000   149.97949     -1.3329891e+08 -264.50881      1431.1848    
    539000   150.00676     -1.3329908e+08 -269.04837      1431.1991    
    540000   150.00062     -1.3329892e+08 -278.40259      1431.2133    
    541000   150.00914     -1.3329885e+08 -276.40853      1431.2276    
    542000   150.00127     -1.3329897e+08 -269.69406      1431.2418    
    543000   150.0007      -1.3329905e+08 -270.09748      1431.2561    
    544000   150.00592     -1.3329891e+08 -274.53234      1431.2703    
    545000   149.99064     -1.3329892e+08 -280.41305      1431.2845    
    546000   149.97478     -1.3329885e+08 -290.42777      1431.2988    
    547000   150.00608     -1.3329889e+08 -290.30638      1431.313     
    548000   149.97632     -1.3329893e+08 -291.22345      1431.3273    
    549000   149.98735     -1.3329887e+08 -288.49799      1431.3415    
    550000   149.9599      -1.3329875e+08 -293.84425      1431.3558    
    551000   149.97447     -1.3329886e+08 -304.16658      1431.37      
    552000   149.98004     -1.3329872e+08 -305.831        1431.3842    
    553000   149.99845     -1.3329889e+08 -303.10135      1431.3985    
    554000   150.02146     -1.3329888e+08 -305.57091      1431.4127    
    555000   149.97718     -1.3329876e+08 -301.93787      1431.427     
    556000   149.99821     -1.3329874e+08 -311.8054       1431.4412    
    557000   149.99374     -1.3329866e+08 -317.00636      1431.4554    
    558000   149.99708     -1.3329846e+08 -331.79206      1431.4697    
    559000   150.00933     -1.332985e+08  -323.76701      1431.4839    
    560000   149.98507     -1.3329838e+08 -315.66077      1431.4982    
    561000   150.03389     -1.3329852e+08 -318.03836      1431.5124    
    562000   150.00907     -1.3329852e+08 -326.75708      1431.5267    
    563000   150.00591     -1.3329858e+08 -334.60748      1431.5409    
    564000   149.98428     -1.3329845e+08 -336.2376       1431.5551    
    565000   150.00571     -1.3329851e+08 -337.35417      1431.5694    
    566000   150.02603     -1.3329866e+08 -339.19032      1431.5836    
    567000   150.00686     -1.3329852e+08 -338.22917      1431.5979    
    568000   150.00695     -1.3329846e+08 -344.41846      1431.6121    
    569000   150.01718     -1.3329856e+08 -351.21644      1431.6264    
    570000   149.97448     -1.3329846e+08 -355.50216      1431.6406    
    571000   149.99272     -1.3329852e+08 -353.3228       1431.6548    
    572000   149.98513     -1.3329839e+08 -345.83375      1431.6691    
    573000   150.02207     -1.332985e+08  -350.79392      1431.6833    
    574000   149.99997     -1.3329844e+08 -354.38339      1431.6976    
    575000   150.00559     -1.3329833e+08 -372.3482       1431.7118    
    576000   150.02655     -1.3329852e+08 -376.76814      1431.7261    
    577000   150.00523     -1.3329829e+08 -380.28771      1431.7403    
    578000   149.99865     -1.3329819e+08 -370.41736      1431.7545    
    579000   149.98636     -1.3329824e+08 -369.28787      1431.7688    
    580000   150.01212     -1.3329824e+08 -370.14961      1431.783     
    581000   149.96604     -1.3329821e+08 -381.96882      1431.7973    
    582000   149.98103     -1.3329824e+08 -385.40735      1431.8115    
    583000   149.9906      -1.332982e+08  -389.92507      1431.8257    
    584000   149.99335     -1.3329814e+08 -385.0094       1431.84      
    585000   149.97767     -1.3329823e+08 -386.16966      1431.8542    
    586000   150.00366     -1.3329817e+08 -383.14328      1431.8685    
    587000   149.96433     -1.3329807e+08 -392.63288      1431.8827    
    588000   149.96993     -1.3329825e+08 -399.71783      1431.897     
    589000   149.97019     -1.3329818e+08 -403.93238      1431.9112    
    590000   149.95568     -1.3329816e+08 -409.18889      1431.9254    
    591000   149.95214     -1.3329797e+08 -402.47827      1431.9397    
    592000   149.95082     -1.332981e+08  -407.24224      1431.9539    
    593000   149.91119     -1.3329789e+08 -411.63631      1431.9682    
    594000   149.98062     -1.3329796e+08 -417.38403      1431.9824    
    595000   149.99915     -1.3329798e+08 -415.17243      1431.9967    
    596000   150.00643     -1.3329808e+08 -419.87857      1432.0109    
    597000   149.97504     -1.3329778e+08 -427.29636      1432.0251    
    598000   149.99319     -1.3329799e+08 -430.65845      1432.0394    
    599000   149.97597     -1.3329784e+08 -430.08907      1432.0536    
    600000   150.00068     -1.3329788e+08 -435.08564      1432.0679    
    601000   149.98947     -1.3329779e+08 -440.59372      1432.0821    
    602000   149.98396     -1.3329767e+08 -443.62346      1432.0964    
    603000   149.99295     -1.3329773e+08 -443.8623       1432.1106    
    604000   149.99162     -1.3329777e+08 -435.52108      1432.1248    
    605000   149.97843     -1.3329767e+08 -437.61409      1432.1391    
    606000   149.99585     -1.332977e+08  -440.36532      1432.1533    
    607000   149.97968     -1.3329764e+08 -452.07072      1432.1676    
    608000   149.97747     -1.3329776e+08 -461.47322      1432.1818    
    609000   149.9468      -1.3329765e+08 -455.27056      1432.1961    
    610000   149.96717     -1.332977e+08  -450.88769      1432.2103    
    611000   149.9865      -1.3329762e+08 -450.3292       1432.2245    
    612000   150.00662     -1.3329763e+08 -459.64992      1432.2388    
    613000   150.00516     -1.3329758e+08 -462.12169      1432.253     
    614000   150.01598     -1.3329754e+08 -478.90689      1432.2673    
    615000   149.986       -1.3329749e+08 -480.43781      1432.2815    
    616000   150.01101     -1.3329748e+08 -480.38888      1432.2957    
    617000   150.02115     -1.332975e+08  -476.75389      1432.31      
    618000   150.00696     -1.3329744e+08 -477.71136      1432.3242    
    619000   150.01394     -1.332974e+08  -478.85619      1432.3385    
    620000   150.04005     -1.3329751e+08 -489.28958      1432.3527    
    621000   149.97755     -1.3329733e+08 -494.08807      1432.367     
    622000   150.00398     -1.3329749e+08 -495.86758      1432.3812    
    623000   149.99479     -1.3329722e+08 -488.06621      1432.3954    
    624000   150.01438     -1.3329724e+08 -492.88562      1432.4097    
    625000   149.99111     -1.3329728e+08 -495.20932      1432.4239    
    626000   149.97698     -1.3329719e+08 -506.41399      1432.4382    
    627000   150.00897     -1.3329707e+08 -508.69433      1432.4524    
    628000   149.99859     -1.3329722e+08 -513.13298      1432.4667    
    629000   150.00043     -1.3329707e+08 -513.72171      1432.4809    
    630000   150.01409     -1.3329721e+08 -512.26283      1432.4951    
    631000   150.02946     -1.3329732e+08 -508.80629      1432.5094    
    632000   149.98869     -1.3329707e+08 -507.8923       1432.5236    
    633000   149.98586     -1.3329711e+08 -517.98577      1432.5379    
    634000   150.00973     -1.3329731e+08 -523.23773      1432.5521    
    635000   150.01999     -1.3329717e+08 -527.70928      1432.5664    
    636000   150.03608     -1.3329706e+08 -522.98403      1432.5806    
    637000   150.01953     -1.3329698e+08 -525.57955      1432.5948    
    638000   150.03466     -1.3329695e+08 -531.38303      1432.6091    
    639000   150.01614     -1.3329683e+08 -532.79998      1432.6233    
    640000   150.00797     -1.3329692e+08 -536.71783      1432.6376    
    641000   149.98452     -1.3329695e+08 -542.62761      1432.6518    
    642000   150.01982     -1.3329696e+08 -545.1951       1432.666     
    643000   150.03929     -1.3329696e+08 -544.45382      1432.6803    
    644000   149.99204     -1.3329678e+08 -548.92916      1432.6945    
    645000   149.97905     -1.3329681e+08 -545.12133      1432.7088    
    646000   149.98681     -1.3329686e+08 -551.04836      1432.723     
    647000   149.99495     -1.3329688e+08 -562.07248      1432.7373    
    648000   149.99024     -1.3329667e+08 -562.39463      1432.7515    
    649000   150.01787     -1.332966e+08  -557.63377      1432.7657    
    650000   150.05466     -1.3329674e+08 -556.28533      1432.78      
    651000   149.98938     -1.3329666e+08 -565.4359       1432.7942    
    652000   150.03325     -1.3329692e+08 -573.32177      1432.8085    
    653000   149.99921     -1.3329676e+08 -578.12889      1432.8227    
    654000   149.99648     -1.3329662e+08 -579.29149      1432.837     
    655000   149.99017     -1.3329668e+08 -576.28719      1432.8512    
    656000   149.99615     -1.3329655e+08 -576.95943      1432.8654    
    657000   149.99077     -1.3329654e+08 -580.86912      1432.8797    
    658000   150.00883     -1.332966e+08  -583.25924      1432.8939    
    659000   150.00519     -1.3329667e+08 -587.34899      1432.9082    
    660000   150.00076     -1.3329661e+08 -591.64714      1432.9224    
    661000   149.99024     -1.332966e+08  -590.59792      1432.9367    
    662000   149.95499     -1.3329639e+08 -594.52753      1432.9509    
    663000   150.01404     -1.332964e+08  -602.80236      1432.9651    
    664000   150.00917     -1.3329639e+08 -605.90431      1432.9794    
    665000   150.00005     -1.332965e+08  -606.12219      1432.9936    
    666000   149.99551     -1.3329621e+08 -605.49756      1433.0079    
    667000   150.01742     -1.3329639e+08 -604.17817      1433.0221    
    668000   150.01024     -1.3329641e+08 -608.81728      1433.0363    
    669000   149.99283     -1.3329653e+08 -610.37207      1433.0506    
    670000   149.97318     -1.3329632e+08 -613.74492      1433.0648    
    671000   150.00405     -1.3329645e+08 -618.53818      1433.0791    
    672000   149.97664     -1.3329628e+08 -617.26707      1433.0933    
    673000   150.00029     -1.3329627e+08 -622.86711      1433.1076    
    674000   149.95973     -1.3329634e+08 -626.77349      1433.1218    
    675000   149.95321     -1.3329634e+08 -632.15949      1433.136     
    676000   149.95832     -1.3329628e+08 -629.55936      1433.1503    
    677000   150.00597     -1.3329624e+08 -632.48678      1433.1645    
    678000   149.99959     -1.3329621e+08 -629.48993      1433.1788    
    679000   149.9848      -1.3329621e+08 -639.17831      1433.193     
    680000   149.98787     -1.3329612e+08 -645.17759      1433.2073    
    681000   149.99409     -1.3329616e+08 -650.99969      1433.2215    
    682000   149.99288     -1.3329619e+08 -651.8518       1433.2357    
    683000   150.02002     -1.3329617e+08 -651.20691      1433.25      
    684000   150.00333     -1.3329607e+08 -651.09308      1433.2642    
    685000   150.00979     -1.3329612e+08 -656.16133      1433.2785    
    686000   149.99473     -1.3329605e+08 -659.84576      1433.2927    
    687000   149.98236     -1.3329598e+08 -664.07136      1433.307     
    688000   149.9918      -1.33296e+08   -665.47357      1433.3212    
    689000   149.98494     -1.3329593e+08 -667.17737      1433.3354    
    690000   150.0066      -1.3329585e+08 -669.03514      1433.3497    
    691000   150.01192     -1.3329587e+08 -669.56132      1433.3639    
    692000   149.98447     -1.3329567e+08 -673.85227      1433.3782    
    693000   150.00885     -1.3329591e+08 -673.47952      1433.3924    
    694000   149.99037     -1.3329577e+08 -678.3763       1433.4067    
    695000   149.97554     -1.3329573e+08 -681.75044      1433.4209    
    696000   150.00657     -1.332958e+08  -685.68245      1433.4351    
    697000   149.95265     -1.3329563e+08 -694.63159      1433.4494    
    698000   149.94043     -1.3329561e+08 -698.29965      1433.4636    
    699000   149.99306     -1.3329577e+08 -697.9078       1433.4779    
    700000   149.99195     -1.3329555e+08 -695.01133      1433.4921    
    701000   150.00226     -1.3329562e+08 -695.87981      1433.5063    
    702000   149.98378     -1.3329552e+08 -704.78538      1433.5206    
    703000   149.98483     -1.3329553e+08 -704.92274      1433.5348    
    704000   149.98506     -1.3329549e+08 -706.55818      1433.5491    
    705000   150.03146     -1.3329553e+08 -705.4594       1433.5633    
    706000   149.97629     -1.3329539e+08 -707.2978       1433.5776    
    707000   149.99113     -1.3329548e+08 -715.53215      1433.5918    
    708000   149.97544     -1.332955e+08  -720.07657      1433.606     
    709000   149.96382     -1.3329548e+08 -721.83342      1433.6203    
    710000   149.97836     -1.3329557e+08 -728.6234       1433.6345    
    711000   149.99335     -1.3329551e+08 -729.09533      1433.6488    
    712000   149.99051     -1.3329546e+08 -728.97828      1433.663     
    713000   149.97346     -1.3329532e+08 -729.19815      1433.6773    
    714000   149.9923      -1.332954e+08  -725.1743       1433.6915    
    715000   149.98278     -1.3329543e+08 -737.2409       1433.7057    
    716000   149.99023     -1.3329535e+08 -747.28273      1433.72      
    717000   149.96596     -1.3329531e+08 -750.01613      1433.7342    
    718000   149.95454     -1.3329537e+08 -747.10001      1433.7485    
    719000   149.9811      -1.3329528e+08 -744.71838      1433.7627    
    720000   149.98473     -1.3329518e+08 -744.39847      1433.777     
    721000   150.01389     -1.332951e+08  -754.4236       1433.7912    
    722000   150.01591     -1.332952e+08  -757.40279      1433.8054    
    723000   150.01373     -1.33295e+08   -759.92997      1433.8197    
    724000   150.02311     -1.3329503e+08 -762.32225      1433.8339    
    725000   149.99814     -1.33295e+08   -764.53455      1433.8482    
    726000   149.97803     -1.3329498e+08 -762.47066      1433.8624    
    727000   149.97637     -1.3329493e+08 -770.71896      1433.8766    
    728000   149.98324     -1.3329488e+08 -771.81844      1433.8909    
    729000   150.00991     -1.3329493e+08 -773.05725      1433.9051    
    730000   149.98364     -1.3329484e+08 -770.65167      1433.9194    
    731000   150.00069     -1.3329489e+08 -775.26502      1433.9336    
    732000   149.99834     -1.3329485e+08 -777.10396      1433.9479    
    733000   150.02338     -1.3329471e+08 -784.20131      1433.9621    
    734000   150.0398      -1.3329468e+08 -790.48152      1433.9763    
    735000   150.02618     -1.3329464e+08 -800.13363      1433.9906    
    736000   149.99467     -1.3329464e+08 -788.14814      1434.0048    
    737000   150.01326     -1.3329474e+08 -795.66197      1434.0191    
    738000   149.9869      -1.3329458e+08 -792.78974      1434.0333    
    739000   150.02004     -1.3329472e+08 -802.12673      1434.0476    
    740000   150.02676     -1.3329465e+08 -803.11699      1434.0618    
    741000   150.03426     -1.332945e+08  -812.78054      1434.076     
    742000   150.04165     -1.3329451e+08 -810.77111      1434.0903    
    743000   150.03543     -1.332947e+08  -812.05689      1434.1045    
    744000   150.0127      -1.3329467e+08 -812.22782      1434.1188    
    745000   149.97467     -1.3329459e+08 -816.26979      1434.133     
    746000   149.97127     -1.3329446e+08 -822.63117      1434.1473    
    747000   150.02023     -1.332946e+08  -825.56844      1434.1615    
    748000   150.01281     -1.3329449e+08 -825.95288      1434.1757    
    749000   150.01104     -1.3329455e+08 -833.7683       1434.19      
    750000   150.0165      -1.3329447e+08 -834.14423      1434.2042    
    751000   150.02607     -1.3329445e+08 -837.38942      1434.2185    
    752000   149.99255     -1.3329418e+08 -834.80572      1434.2327    
    753000   150.00927     -1.3329417e+08 -838.46225      1434.2469    
    754000   150.01121     -1.3329428e+08 -841.98717      1434.2612    
    755000   150.03686     -1.3329429e+08 -844.00807      1434.2754    
    756000   150.02389     -1.3329421e+08 -841.92762      1434.2897    
    757000   150.00241     -1.3329426e+08 -845.72579      1434.3039    
    758000   149.98604     -1.3329416e+08 -855.49759      1434.3182    
    759000   149.98964     -1.332943e+08  -865.35216      1434.3324    
    760000   149.98235     -1.332943e+08  -857.11195      1434.3466    
    761000   149.98532     -1.3329418e+08 -859.38548      1434.3609    
    762000   149.98332     -1.3329399e+08 -855.84962      1434.3751    
    763000   149.98907     -1.3329399e+08 -861.07794      1434.3894    
    764000   150.00829     -1.3329412e+08 -869.47809      1434.4036    
    765000   149.98482     -1.3329393e+08 -868.88974      1434.4179    
    766000   149.98134     -1.3329396e+08 -871.73341      1434.4321    
    767000   150.01313     -1.3329402e+08 -879.10224      1434.4463    
    768000   150.02769     -1.3329402e+08 -873.00037      1434.4606    
    769000   149.99673     -1.33294e+08   -880.2199       1434.4748    
    770000   150.01311     -1.3329401e+08 -879.24271      1434.4891    
    771000   150.0119      -1.3329385e+08 -882.90993      1434.5033    
    772000   150.01504     -1.3329377e+08 -886.32998      1434.5176    
    773000   150.01412     -1.3329392e+08 -891.2804       1434.5318    
    774000   149.98061     -1.3329381e+08 -894.48887      1434.546     
    775000   149.94047     -1.3329391e+08 -885.56147      1434.5603    
    776000   149.94115     -1.3329395e+08 -894.40426      1434.5745    
    777000   149.96659     -1.3329385e+08 -899.89111      1434.5888    
    778000   149.96252     -1.3329387e+08 -908.98909      1434.603     
    779000   149.97334     -1.3329375e+08 -911.4225       1434.6172    
    780000   149.97699     -1.3329364e+08 -906.4553       1434.6315    
    781000   150.01046     -1.3329381e+08 -908.21187      1434.6457    
    782000   150.00567     -1.3329352e+08 -908.01094      1434.66      
    783000   150.00529     -1.3329351e+08 -919.40584      1434.6742    
    784000   150.00141     -1.3329327e+08 -920.65976      1434.6885    
    785000   150.01675     -1.3329349e+08 -927.86646      1434.7027    
    786000   149.99461     -1.3329346e+08 -927.22566      1434.7169    
    787000   149.99076     -1.332934e+08  -925.75058      1434.7312    
    788000   149.98687     -1.3329339e+08 -927.4543       1434.7454    
    789000   149.96525     -1.3329331e+08 -925.47996      1434.7597    
    790000   150.02235     -1.3329328e+08 -925.66077      1434.7739    
    791000   150.0124      -1.3329325e+08 -933.25948      1434.7882    
    792000   150.02134     -1.3329324e+08 -936.37203      1434.8024    
    793000   150.03833     -1.3329325e+08 -943.99235      1434.8166    
    794000   149.97216     -1.3329301e+08 -944.70871      1434.8309    
    795000   149.98629     -1.3329316e+08 -950.74778      1434.8451    
    796000   149.97146     -1.3329311e+08 -952.78027      1434.8594    
    797000   149.99888     -1.3329328e+08 -956.6154       1434.8736    
    798000   149.96128     -1.3329313e+08 -954.2099       1434.8879    
    799000   149.98594     -1.3329327e+08 -952.60161      1434.9021    
    800000   149.9767      -1.3329313e+08 -955.41621      1434.9163    
    801000   150.02289     -1.3329312e+08 -965.6195       1434.9306    
    802000   150.01044     -1.33293e+08   -973.74617      1434.9448    
    803000   150.00895     -1.3329302e+08 -971.46625      1434.9591    
    804000   149.99702     -1.3329299e+08 -973.32602      1434.9733    
    805000   149.99129     -1.3329301e+08 -967.44619      1434.9876    
    806000   149.98685     -1.3329297e+08 -969.83014      1435.0018    
    807000   149.96791     -1.3329297e+08 -972.49835      1435.016     
    808000   149.98048     -1.3329305e+08 -980.68507      1435.0303    
    809000   150.00891     -1.3329295e+08 -986.41031      1435.0445    
    810000   149.97726     -1.3329287e+08 -985.1949       1435.0588    
    811000   149.99335     -1.332929e+08  -990.77979      1435.073     
    812000   149.97688     -1.3329267e+08 -991.93643      1435.0872    
    813000   149.95436     -1.3329263e+08 -995.29083      1435.1015    
    814000   149.98928     -1.3329262e+08 -991.61487      1435.1157    
    815000   150.00209     -1.332926e+08  -998.94667      1435.13      
    816000   150.01314     -1.3329248e+08 -999.78888      1435.1442    
    817000   150.01759     -1.3329261e+08 -1007.3489      1435.1585    
    818000   149.99909     -1.3329258e+08 -1002.0438      1435.1727    
    819000   149.97731     -1.3329265e+08 -999.41122      1435.1869    
    820000   149.95878     -1.3329269e+08 -1005.7969      1435.2012    
    821000   149.9818      -1.3329265e+08 -1015.7625      1435.2154    
    822000   149.99804     -1.3329244e+08 -1017.4483      1435.2297    
    823000   149.96941     -1.3329253e+08 -1021.6374      1435.2439    
    824000   149.98168     -1.332924e+08  -1017.9479      1435.2582    
    825000   150.00211     -1.3329248e+08 -1024.2467      1435.2724    
    826000   149.99293     -1.3329233e+08 -1027.1381      1435.2866    
    827000   149.99323     -1.3329226e+08 -1029.334       1435.3009    
    828000   150.0098      -1.3329229e+08 -1032.2801      1435.3151    
    829000   150.02764     -1.3329234e+08 -1032.0828      1435.3294    
    830000   150.00576     -1.332924e+08  -1038.4008      1435.3436    
    831000   150.01259     -1.3329245e+08 -1043.5163      1435.3579    
    832000   149.98401     -1.3329228e+08 -1047.0509      1435.3721    
    833000   149.99249     -1.3329229e+08 -1046.3711      1435.3863    
    834000   149.99105     -1.3329218e+08 -1049.7255      1435.4006    
    835000   149.97904     -1.3329225e+08 -1046.8612      1435.4148    
    836000   149.96734     -1.3329214e+08 -1057.4509      1435.4291    
    837000   149.97918     -1.3329214e+08 -1057.913       1435.4433    
    838000   149.98679     -1.3329243e+08 -1061.4248      1435.4575    
    839000   149.95621     -1.3329219e+08 -1059.0857      1435.4718    
    840000   150.01413     -1.3329227e+08 -1061.7327      1435.486     
    841000   149.99229     -1.3329206e+08 -1066.1916      1435.5003    
    842000   149.98682     -1.3329191e+08 -1063.9775      1435.5145    
    843000   150.02741     -1.3329202e+08 -1070.9222      1435.5288    
    844000   150.00195     -1.3329194e+08 -1074.0812      1435.543     
    845000   149.98626     -1.3329193e+08 -1085.5808      1435.5572    
    846000   149.97791     -1.3329199e+08 -1092.2113      1435.5715    
    847000   149.98917     -1.3329199e+08 -1094.6714      1435.5857    
    848000   149.97018     -1.3329176e+08 -1087.2878      1435.6       
    849000   149.98707     -1.3329177e+08 -1086.9785      1435.6142    
    850000   150.00411     -1.3329152e+08 -1082.7554      1435.6285    
    851000   150.01099     -1.3329157e+08 -1083.7119      1435.6427    
    852000   150.01198     -1.3329168e+08 -1094.7934      1435.6569    
    853000   150.01916     -1.3329174e+08 -1102.0004      1435.6712    
    854000   150.01481     -1.3329169e+08 -1101.0048      1435.6854    
    855000   150.01949     -1.3329161e+08 -1099.9339      1435.6997    
    856000   150.04067     -1.3329163e+08 -1100.5403      1435.7139    
    857000   149.98906     -1.3329146e+08 -1106.5851      1435.7282    
    858000   150.02539     -1.3329148e+08 -1108.211       1435.7424    
    859000   150.01729     -1.3329155e+08 -1106.9927      1435.7566    
    860000   150.02041     -1.3329152e+08 -1112.7841      1435.7709    
    861000   149.97193     -1.3329154e+08 -1118.2452      1435.7851    
    862000   150.01275     -1.332916e+08  -1125.2502      1435.7994    
    863000   149.99326     -1.3329152e+08 -1120.9167      1435.8136    
    864000   149.99596     -1.3329147e+08 -1118.6677      1435.8278    
    865000   149.99413     -1.3329138e+08 -1121.7384      1435.8421    
    866000   149.9871      -1.3329139e+08 -1131.0789      1435.8563    
    867000   149.978       -1.3329125e+08 -1130.5834      1435.8706    
    868000   150.01658     -1.3329126e+08 -1130.5592      1435.8848    
    869000   150.01091     -1.3329115e+08 -1133.2722      1435.8991    
    870000   150.00213     -1.3329112e+08 -1143.5877      1435.9133    
    871000   149.99045     -1.3329108e+08 -1153.1666      1435.9275    
    872000   150.0316      -1.3329115e+08 -1149.8314      1435.9418    
    873000   150.01917     -1.3329116e+08 -1152.8931      1435.956     
    874000   150.00297     -1.3329102e+08 -1151.7365      1435.9703    
    875000   150.01002     -1.3329091e+08 -1150.9011      1435.9845    
    876000   150.02987     -1.3329098e+08 -1155.3454      1435.9988    
    877000   150.0084      -1.3329083e+08 -1162.2639      1436.013     
    878000   149.99615     -1.332909e+08  -1169.9196      1436.0272    
    879000   150.00149     -1.3329087e+08 -1168.6874      1436.0415    
    880000   149.99681     -1.3329084e+08 -1172.0359      1436.0557    
    881000   149.99783     -1.3329072e+08 -1168.0122      1436.07      
    882000   149.99831     -1.3329078e+08 -1175.1472      1436.0842    
    883000   150.00868     -1.3329061e+08 -1174.4094      1436.0985    
    884000   149.99388     -1.3329069e+08 -1179.8781      1436.1127    
    885000   150.00014     -1.332906e+08  -1182.4591      1436.1269    
    886000   150.00591     -1.3329075e+08 -1184.2022      1436.1412    
    887000   149.99522     -1.3329087e+08 -1184.6939      1436.1554    
    888000   150.00895     -1.3329079e+08 -1189.5989      1436.1697    
    889000   149.98354     -1.3329075e+08 -1194.5598      1436.1839    
    890000   149.95804     -1.3329061e+08 -1197.0334      1436.1982    
    891000   149.98317     -1.3329079e+08 -1195.4103      1436.2124    
    892000   149.9789      -1.3329063e+08 -1196.1992      1436.2266    
    893000   150.00094     -1.3329058e+08 -1206.2057      1436.2409    
    894000   149.99921     -1.3329058e+08 -1207.1003      1436.2551    
    895000   149.99508     -1.3329042e+08 -1207.1013      1436.2694    
    896000   149.98768     -1.3329049e+08 -1205.0416      1436.2836    
    897000   149.9703      -1.3329031e+08 -1208.74        1436.2978    
    898000   150.00758     -1.3329031e+08 -1213.6924      1436.3121    
    899000   150.00314     -1.3329035e+08 -1222.2706      1436.3263    
    900000   150.02062     -1.3329033e+08 -1222.7206      1436.3406    
    901000   150.00153     -1.3329021e+08 -1223.4264      1436.3548    
    902000   149.99717     -1.3329022e+08 -1226.7219      1436.3691    
    903000   150.00666     -1.3329017e+08 -1226.1487      1436.3833    
    904000   150.00441     -1.3329016e+08 -1231.4366      1436.3975    
    905000   150.00625     -1.3329009e+08 -1231.5413      1436.4118    
    906000   150.00739     -1.3329016e+08 -1234.5302      1436.426     
    907000   149.99643     -1.3329006e+08 -1239.0343      1436.4403    
    908000   149.9843      -1.3329009e+08 -1245.2412      1436.4545    
    909000   149.97925     -1.3328992e+08 -1247.5085      1436.4688    
    910000   149.99266     -1.3329001e+08 -1246.7855      1436.483     
    911000   150.01634     -1.3329002e+08 -1250.3971      1436.4972    
    912000   150.02018     -1.3328994e+08 -1246.648       1436.5115    
    913000   149.99014     -1.3328977e+08 -1251.2594      1436.5257    
    914000   150.02604     -1.3328995e+08 -1251.9852      1436.54      
    915000   150.01174     -1.3328988e+08 -1258.1798      1436.5542    
    916000   149.98018     -1.3328978e+08 -1264.4467      1436.5685    
    917000   149.96977     -1.3328993e+08 -1271.6387      1436.5827    
    918000   149.95856     -1.3328969e+08 -1264.5848      1436.5969    
    919000   150.00862     -1.3328973e+08 -1263.5157      1436.6112    
    920000   150.02769     -1.3328975e+08 -1265.5732      1436.6254    
    921000   149.99017     -1.3328967e+08 -1277.2054      1436.6397    
    922000   149.99653     -1.3328972e+08 -1276.2896      1436.6539    
    923000   149.99213     -1.3328975e+08 -1283.7424      1436.6681    
    924000   150.02935     -1.3328965e+08 -1282.419       1436.6824    
    925000   150.01004     -1.3328957e+08 -1285.6879      1436.6966    
    926000   150.00751     -1.332896e+08  -1296.7804      1436.7109    
    927000   149.96732     -1.3328952e+08 -1292.8202      1436.7251    
    928000   149.99883     -1.3328946e+08 -1295.986       1436.7394    
    929000   149.9864      -1.3328928e+08 -1289.7109      1436.7536    
    930000   149.99327     -1.3328934e+08 -1297.2596      1436.7678    
    931000   149.98875     -1.3328918e+08 -1301.4841      1436.7821    
    932000   150.01923     -1.3328939e+08 -1302.5848      1436.7963    
    933000   150.0009      -1.3328921e+08 -1304.9294      1436.8106    
    934000   150.02843     -1.3328935e+08 -1306.0759      1436.8248    
    935000   149.99976     -1.332891e+08  -1309.9009      1436.8391    
    936000   150.01808     -1.3328917e+08 -1313.2839      1436.8533    
    937000   150.01686     -1.3328903e+08 -1315.9478      1436.8675    
    938000   150.00502     -1.3328914e+08 -1319.6556      1436.8818    
    939000   150.00985     -1.3328915e+08 -1323.5557      1436.896     
    940000   149.98325     -1.3328907e+08 -1321.632       1436.9103    
    941000   150.00508     -1.3328912e+08 -1324.0364      1436.9245    
    942000   150.02719     -1.3328912e+08 -1323.6616      1436.9388    
    943000   149.97543     -1.3328888e+08 -1331.4165      1436.953     
    944000   149.96311     -1.3328899e+08 -1337.8629      1436.9672    
    945000   149.92742     -1.3328893e+08 -1339.3209      1436.9815    
    946000   149.97406     -1.3328905e+08 -1339.6687      1436.9957    
    947000   149.95826     -1.3328881e+08 -1338.4804      1437.01      
    948000   149.98295     -1.3328877e+08 -1344.4292      1437.0242    
    949000   149.97941     -1.3328869e+08 -1347.0568      1437.0384    
    950000   150.00424     -1.3328869e+08 -1353.5887      1437.0527    
    951000   149.98963     -1.3328856e+08 -1358.2842      1437.0669    
    952000   149.98959     -1.3328856e+08 -1356.5755      1437.0812    
    953000   150.00059     -1.3328869e+08 -1360.8437      1437.0954    
    954000   150.02257     -1.3328857e+08 -1359.0743      1437.1097    
    955000   150.00427     -1.3328859e+08 -1363.233       1437.1239    
    956000   149.99463     -1.332885e+08  -1362.7154      1437.1381    
    957000   149.9585      -1.332886e+08  -1373.6448      1437.1524    
    958000   149.9918      -1.3328847e+08 -1367.1304      1437.1666    
    959000   149.99974     -1.3328833e+08 -1376.8901      1437.1809    
    960000   149.98458     -1.3328831e+08 -1370.2434      1437.1951    
    961000   149.97578     -1.3328836e+08 -1374.097       1437.2094    
    962000   150.01479     -1.3328848e+08 -1380.7759      1437.2236    
    963000   149.96269     -1.3328833e+08 -1389.406       1437.2378    
    964000   150.0024      -1.3328832e+08 -1390.8795      1437.2521    
    965000   149.98809     -1.3328825e+08 -1390.6699      1437.2663    
    966000   149.97448     -1.3328827e+08 -1390.4274      1437.2806    
    967000   149.96508     -1.3328815e+08 -1390.44        1437.2948    
    968000   149.99819     -1.3328826e+08 -1397.0106      1437.3091    
    969000   149.96994     -1.3328801e+08 -1399.3169      1437.3233    
    970000   149.97939     -1.33288e+08   -1407.7108      1437.3375    
    971000   149.99511     -1.3328808e+08 -1401.9868      1437.3518    
    972000   149.98992     -1.3328805e+08 -1398.5828      1437.366     
    973000   150.01649     -1.3328808e+08 -1397.9534      1437.3803    
    974000   149.99676     -1.3328792e+08 -1409.4921      1437.3945    
    975000   149.98819     -1.3328804e+08 -1421.4279      1437.4087    
    976000   149.98507     -1.3328788e+08 -1417.554       1437.423     
    977000   150.01072     -1.3328785e+08 -1421.2499      1437.4372    
    978000   150.00686     -1.3328786e+08 -1414.8073      1437.4515    
    979000   150.00612     -1.3328788e+08 -1420.3636      1437.4657    
    980000   149.99722     -1.3328776e+08 -1422.1887      1437.48      
    981000   149.99854     -1.3328776e+08 -1430.535       1437.4942    
    982000   149.98535     -1.3328764e+08 -1425.9413      1437.5084    
    983000   149.99316     -1.332875e+08  -1428.1435      1437.5227    
    984000   150.01542     -1.3328764e+08 -1432.3022      1437.5369    
    985000   150.05475     -1.3328769e+08 -1443.0195      1437.5512    
    986000   150.03345     -1.332876e+08  -1440.8111      1437.5654    
    987000   150.01199     -1.3328744e+08 -1447.2485      1437.5797    
    988000   150.00178     -1.3328731e+08 -1446.9825      1437.5939    
    989000   150.02507     -1.3328749e+08 -1451.5443      1437.6081    
    990000   150.03149     -1.3328745e+08 -1451.4171      1437.6224    
    991000   150.02275     -1.3328734e+08 -1452.3041      1437.6366    
    992000   150.01396     -1.3328731e+08 -1449.3837      1437.6509    
    993000   150.00634     -1.3328715e+08 -1456.1694      1437.6651    
    994000   150.00737     -1.3328739e+08 -1462.1464      1437.6794    
    995000   149.99972     -1.3328732e+08 -1472.6408      1437.6936    
    996000   149.9747      -1.3328754e+08 -1469.5112      1437.7078    
    997000   149.97643     -1.3328729e+08 -1467.5363      1437.7221    
    998000   149.97968     -1.3328731e+08 -1466.1692      1437.7363    
    999000   150.0373      -1.3328726e+08 -1476.6397      1437.7506    
   1000000   150.00839     -1.3328709e+08 -1485.2957      1437.7648    
   1001000   150.00618     -1.3328686e+08 -1487.2466      1437.7791    
   1002000   150.03593     -1.3328696e+08 -1485.7816      1437.7933    
   1003000   150.00875     -1.3328697e+08 -1480.986       1437.8075    
   1004000   149.95501     -1.3328689e+08 -1481.2587      1437.8218    
   1005000   149.97329     -1.33287e+08   -1491.0987      1437.836     
   1006000   149.99277     -1.3328694e+08 -1497.0147      1437.8503    
   1007000   149.98036     -1.3328692e+08 -1497.361       1437.8645    
   1008000   150.04179     -1.3328692e+08 -1495.7188      1437.8787    
   1009000   150.00574     -1.3328662e+08 -1496.4994      1437.893     
   1010000   150.0436      -1.3328674e+08 -1509.4661      1437.9072    
   1011000   150.023       -1.3328676e+08 -1505.6462      1437.9215    
   1012000   149.99602     -1.3328666e+08 -1502.5391      1437.9357    
   1013000   150.00005     -1.3328665e+08 -1505.0859      1437.95      
   1014000   149.98696     -1.3328663e+08 -1514.2037      1437.9642    
   1015000   149.98967     -1.3328666e+08 -1517.4777      1437.9784    
   1016000   149.9745      -1.3328672e+08 -1520.6718      1437.9927    
   1017000   149.99053     -1.3328673e+08 -1524.1041      1438.0069    
   1018000   149.9877      -1.3328661e+08 -1527.6477      1438.0212    
   1019000   149.9738      -1.3328661e+08 -1532.882       1438.0354    
   1020000   149.98821     -1.3328653e+08 -1529.1317      1438.0497    
   1021000   149.99041     -1.3328629e+08 -1532.3426      1438.0639    
   1022000   149.98773     -1.3328644e+08 -1529.7567      1438.0781    
   1023000   149.973       -1.3328637e+08 -1533.1824      1438.0924    
   1024000   149.97056     -1.3328628e+08 -1535.5063      1438.1066    
   1025000   150.00534     -1.332862e+08  -1542.4142      1438.1209    
   1026000   150.01528     -1.3328617e+08 -1537.183       1438.1351    
   1027000   150.00196     -1.3328613e+08 -1542.5777      1438.1494    
   1028000   150.04501     -1.3328632e+08 -1545.4598      1438.1636    
   1029000   150.00675     -1.332862e+08  -1548.2374      1438.1778    
   1030000   150.00507     -1.3328617e+08 -1548.5975      1438.1921    
   1031000   150.00913     -1.3328611e+08 -1561.2917      1438.2063    
   1032000   150.00237     -1.3328601e+08 -1564.1734      1438.2206    
   1033000   149.98633     -1.3328597e+08 -1568.2265      1438.2348    
   1034000   150.0248      -1.3328598e+08 -1564.1297      1438.249     
   1035000   150.02123     -1.3328606e+08 -1563.7046      1438.2633    
   1036000   150.00146     -1.3328589e+08 -1564.7094      1438.2775    
[...]
   4516000   150.00143     -1.3309692e+08 -7470.8587      1487.8409    
   4517000   150.02525     -1.3309688e+08 -7468.0162      1487.8551    
   4518000   149.99369     -1.3309655e+08 -7479.4099      1487.8694    
   4519000   149.98194     -1.3309654e+08 -7474.5625      1487.8836    
   4520000   149.98354     -1.330966e+08  -7483.7715      1487.8979    
   4521000   149.99059     -1.330963e+08  -7485.4926      1487.9121    
   4522000   150.01799     -1.3309618e+08 -7492.0125      1487.9264    
   4523000   150.0058      -1.3309594e+08 -7480.7833      1487.9406    
   4524000   150.04501     -1.3309597e+08 -7480.1181      1487.9548    
   4525000   150.00415     -1.3309596e+08 -7478.1455      1487.9691    
   4526000   149.99946     -1.3309584e+08 -7488.7425      1487.9833    
   4527000   150.01281     -1.3309583e+08 -7498.3375      1487.9976    
   4528000   149.97454     -1.3309545e+08 -7503.0955      1488.0118    
   4529000   149.98735     -1.3309553e+08 -7496.2674      1488.026     
   4530000   149.9947      -1.3309538e+08 -7494.2076      1488.0403    
   4531000   149.99584     -1.3309527e+08 -7495.6575      1488.0545    
   4532000   150.00248     -1.3309537e+08 -7499.6507      1488.0688    
   4533000   149.96252     -1.3309522e+08 -7498.3101      1488.083     
   4534000   150.02674     -1.3309514e+08 -7503.6776      1488.0973    
   4535000   149.99689     -1.3309504e+08 -7500.9805      1488.1115    
   4536000   150.01024     -1.3309495e+08 -7507.1032      1488.1257    
   4537000   149.99242     -1.3309474e+08 -7508.0099      1488.14      
   4538000   150.00125     -1.3309449e+08 -7508.9118      1488.1542    
   4539000   149.99636     -1.3309443e+08 -7505.5143      1488.1685    
   4540000   150.03358     -1.3309453e+08 -7509.0752      1488.1827    
   4541000   149.99718     -1.3309427e+08 -7513.9437      1488.197     
   4542000   149.9821      -1.3309414e+08 -7513.8719      1488.2112    
   4543000   150.01903     -1.3309436e+08 -7512.1238      1488.2254    
   4544000   149.98916     -1.3309398e+08 -7513.8317      1488.2397    
   4545000   149.97857     -1.3309386e+08 -7521.4017      1488.2539    
   4546000   150.00324     -1.3309394e+08 -7524.696       1488.2682    
   4547000   149.99116     -1.3309384e+08 -7529.1636      1488.2824    
   4548000   149.95937     -1.3309365e+08 -7526.5073      1488.2967    
   4549000   149.94618     -1.3309357e+08 -7532.7939      1488.3109    
   4550000   149.99991     -1.3309353e+08 -7533.149       1488.3251    
   4551000   149.96074     -1.3309313e+08 -7531.8054      1488.3394    
   4552000   149.97947     -1.3309316e+08 -7529.9599      1488.3536    
   4553000   149.97402     -1.3309295e+08 -7531.9709      1488.3679    
   4554000   149.9681      -1.3309289e+08 -7538.4211      1488.3821    
   4555000   149.99022     -1.3309301e+08 -7539.0545      1488.3963    
   4556000   150.00124     -1.3309278e+08 -7543.0679      1488.4106    
   4557000   150.02801     -1.3309277e+08 -7539.8423      1488.4248    
   4558000   150.01053     -1.330924e+08  -7543.2169      1488.4391    
   4559000   150.01573     -1.3309244e+08 -7539.8766      1488.4533    
   4560000   150.01065     -1.3309222e+08 -7547.052       1488.4676    
   4561000   149.97952     -1.3309221e+08 -7550.4756      1488.4818    
   4562000   149.99812     -1.3309214e+08 -7558.2829      1488.496     
   4563000   149.99123     -1.3309194e+08 -7555.225       1488.5103    
   4564000   149.97009     -1.3309178e+08 -7555.1746      1488.5245    
   4565000   150.00823     -1.3309187e+08 -7546.3521      1488.5388    
   4566000   149.98608     -1.3309175e+08 -7550.7416      1488.553     
   4567000   149.99497     -1.3309158e+08 -7558.1884      1488.5673    
   4568000   150.00142     -1.3309142e+08 -7565.9594      1488.5815    
   4569000   150.01527     -1.3309133e+08 -7565.0287      1488.5957    
   4570000   149.99279     -1.3309127e+08 -7560.047       1488.61      
   4571000   149.97823     -1.3309112e+08 -7554.2032      1488.6242    
   4572000   149.98895     -1.3309105e+08 -7564.1238      1488.6385    
   4573000   150.00625     -1.3309099e+08 -7567.2191      1488.6527    
   4574000   150.00056     -1.3309091e+08 -7574.1051      1488.667     
   4575000   150.01933     -1.3309061e+08 -7566.6927      1488.6812    
   4576000   150.03981     -1.3309044e+08 -7568.4376      1488.6954    
   4577000   150.01169     -1.3309035e+08 -7571.4913      1488.7097    
   4578000   150.0236      -1.3309027e+08 -7573.8011      1488.7239    
   4579000   149.99702     -1.3309012e+08 -7578.7005      1488.7382    
   4580000   150.00935     -1.3309014e+08 -7579.3443      1488.7524    
   4581000   150.02104     -1.3309012e+08 -7576.2623      1488.7666    
   4582000   149.97472     -1.330899e+08  -7580.1407      1488.7809    
   4583000   149.96853     -1.3308985e+08 -7588.287       1488.7951    
   4584000   149.94559     -1.330898e+08  -7590.7801      1488.8094    
   4585000   149.94443     -1.3308983e+08 -7598.2259      1488.8236    
   4586000   149.95486     -1.3308964e+08 -7592.5697      1488.8379    
   4587000   149.98071     -1.3308962e+08 -7591.2848      1488.8521    
   4588000   150.01328     -1.3308948e+08 -7591.1439      1488.8663    
   4589000   150.02291     -1.3308934e+08 -7599.5006      1488.8806    
   4590000   150.00624     -1.3308925e+08 -7596.5616      1488.8948    
   4591000   149.99647     -1.33089e+08   -7594.4674      1488.9091    
   4592000   149.99661     -1.3308882e+08 -7594.4305      1488.9233    
   4593000   150.02594     -1.3308873e+08 -7603.095       1488.9376    
   4594000   150.03552     -1.3308859e+08 -7606.107       1488.9518    
   4595000   150.05145     -1.3308862e+08 -7610.1643      1488.966     
   4596000   150.00783     -1.3308845e+08 -7606.4707      1488.9803    
   4597000   149.9727      -1.3308832e+08 -7609.8335      1488.9945    
   4598000   150.0176      -1.3308832e+08 -7608.8543      1489.0088    
   4599000   149.965       -1.3308817e+08 -7611.0901      1489.023     
   4600000   149.9697      -1.3308806e+08 -7612.7902      1489.0373    
   4601000   149.98537     -1.3308807e+08 -7614.1579      1489.0515    
   4602000   150.00104     -1.3308775e+08 -7616.2398      1489.0657    
   4603000   149.99884     -1.3308773e+08 -7619.5266      1489.08      
   4604000   150.03347     -1.3308767e+08 -7617.5201      1489.0942    
   4605000   150.03193     -1.3308752e+08 -7619.1492      1489.1085    
   4606000   149.99543     -1.3308751e+08 -7618.3401      1489.1227    
   4607000   150.00764     -1.3308728e+08 -7620.0722      1489.1369    
   4608000   149.97717     -1.3308721e+08 -7624.9882      1489.1512    
   4609000   150.00497     -1.3308713e+08 -7627.823       1489.1654    
   4610000   150.0058      -1.3308689e+08 -7630.7948      1489.1797    
   4611000   150.01297     -1.330869e+08  -7634.1902      1489.1939    
   4612000   149.98894     -1.3308677e+08 -7634.2415      1489.2082    
   4613000   149.98612     -1.3308685e+08 -7637.6491      1489.2224    
   4614000   149.98264     -1.3308671e+08 -7639.7066      1489.2366    
   4615000   149.97703     -1.3308655e+08 -7643.132       1489.2509    
   4616000   149.99815     -1.330865e+08  -7646.8154      1489.2651    
   4617000   149.96405     -1.3308632e+08 -7642.322       1489.2794    
   4618000   149.9737      -1.3308623e+08 -7641.579       1489.2936    
   4619000   150.0025      -1.3308628e+08 -7643.2295      1489.3079    
   4620000   149.96772     -1.3308608e+08 -7645.0387      1489.3221    
   4621000   149.97971     -1.3308606e+08 -7647.2655      1489.3363    
   4622000   150.00711     -1.3308601e+08 -7647.4307      1489.3506    
   4623000   149.99016     -1.3308576e+08 -7644.6676      1489.3648    
   4624000   150.00043     -1.3308564e+08 -7654.7211      1489.3791    
   4625000   150.01517     -1.3308551e+08 -7662.0805      1489.3933    
   4626000   149.98451     -1.330853e+08  -7658.5195      1489.4076    
   4627000   150.00738     -1.3308521e+08 -7657.573       1489.4218    
   4628000   150.01086     -1.3308508e+08 -7653.0602      1489.436     
   4629000   150.02301     -1.3308502e+08 -7659.4353      1489.4503    
   4630000   150.01612     -1.3308483e+08 -7665.7739      1489.4645    
   4631000   149.99409     -1.3308464e+08 -7667.9547      1489.4788    
   4632000   150.04484     -1.3308464e+08 -7667.5931      1489.493     
   4633000   150.00984     -1.3308446e+08 -7665.9942      1489.5073    
   4634000   150.02069     -1.3308442e+08 -7667.1663      1489.5215    
   4635000   150.01295     -1.3308426e+08 -7668.8837      1489.5357    
   4636000   149.99096     -1.3308422e+08 -7670.1079      1489.55      
   4637000   149.99476     -1.3308407e+08 -7668.7531      1489.5642    
   4638000   150.01536     -1.3308405e+08 -7673.6256      1489.5785    
   4639000   149.9993      -1.3308403e+08 -7676.5742      1489.5927    
   4640000   149.98532     -1.3308371e+08 -7678.5599      1489.6069    
   4641000   149.99513     -1.3308379e+08 -7684.5393      1489.6212    
   4642000   150.01811     -1.330838e+08  -7684.9532      1489.6354    
   4643000   150.00279     -1.3308359e+08 -7688.2862      1489.6497    
   4644000   150.00119     -1.3308344e+08 -7693.6606      1489.6639    
   4645000   150.0215      -1.3308327e+08 -7687.8592      1489.6782    
   4646000   150.02724     -1.3308313e+08 -7688.0193      1489.6924    
   4647000   150.01485     -1.3308321e+08 -7691.9078      1489.7066    
   4648000   149.97158     -1.3308298e+08 -7694.4908      1489.7209    
   4649000   149.99366     -1.330831e+08  -7695.5537      1489.7351    
   4650000   149.9897      -1.3308277e+08 -7697.3184      1489.7494    
   4651000   149.99177     -1.3308275e+08 -7697.6795      1489.7636    
   4652000   149.95621     -1.3308271e+08 -7705.0081      1489.7779    
   4653000   149.98909     -1.3308255e+08 -7704.9665      1489.7921    
   4654000   150.0216      -1.3308233e+08 -7706.2092      1489.8063    
   4655000   150.00819     -1.3308209e+08 -7707.987       1489.8206    
   4656000   150.00297     -1.3308191e+08 -7702.7547      1489.8348    
   4657000   150.01945     -1.3308193e+08 -7698.8982      1489.8491    
   4658000   150.00056     -1.3308177e+08 -7704.2558      1489.8633    
   4659000   149.99919     -1.3308183e+08 -7717.2677      1489.8776    
   4660000   149.98283     -1.3308159e+08 -7720.0182      1489.8918    
   4661000   150.03425     -1.3308169e+08 -7711.9415      1489.906     
   4662000   149.98031     -1.3308137e+08 -7712.084       1489.9203    
   4663000   150.02506     -1.3308145e+08 -7715.837       1489.9345    
   4664000   150.00949     -1.3308128e+08 -7725.5273      1489.9488    
   4665000   150.02408     -1.3308119e+08 -7727.7054      1489.963     
   4666000   150.01647     -1.33081e+08   -7731.5359      1489.9772    
   4667000   150.02766     -1.3308083e+08 -7724.2883      1489.9915    
   4668000   149.99813     -1.3308084e+08 -7725.3846      1490.0057    
   4669000   150.01845     -1.3308082e+08 -7726.7815      1490.02      
   4670000   150.01046     -1.3308067e+08 -7734.0166      1490.0342    
   4671000   150.01303     -1.3308058e+08 -7736.086       1490.0485    
   4672000   150.02297     -1.3308054e+08 -7746.5017      1490.0627    
   4673000   149.99669     -1.3308031e+08 -7733.6959      1490.0769    
   4674000   150.01124     -1.3308008e+08 -7738.7121      1490.0912    
   4675000   150.00595     -1.3308008e+08 -7735.2937      1490.1054    
   4676000   149.99587     -1.3307994e+08 -7742.7317      1490.1197    
   4677000   149.98975     -1.3307982e+08 -7741.9759      1490.1339    
   4678000   149.98468     -1.3307956e+08 -7745.1545      1490.1482    
   4679000   150.00315     -1.3307968e+08 -7744.9612      1490.1624    
   4680000   150.01449     -1.3307956e+08 -7744.2648      1490.1766    
   4681000   150.01405     -1.3307944e+08 -7748.1904      1490.1909    
   4682000   149.97182     -1.3307914e+08 -7750.0071      1490.2051    
   4683000   150.02724     -1.3307924e+08 -7752.6263      1490.2194    
   4684000   149.99302     -1.3307904e+08 -7756.1618      1490.2336    
   4685000   149.98984     -1.3307901e+08 -7764.882       1490.2479    
   4686000   149.9914      -1.330789e+08  -7761.6236      1490.2621    
   4687000   150.0112      -1.3307877e+08 -7763.6397      1490.2763    
   4688000   149.99219     -1.3307859e+08 -7761.6932      1490.2906    
   4689000   150.0056      -1.3307869e+08 -7759.2896      1490.3048    
   4690000   150.00779     -1.3307858e+08 -7762.2246      1490.3191    
   4691000   150.0026      -1.3307837e+08 -7768.9259      1490.3333    
   4692000   149.99893     -1.3307837e+08 -7772.3244      1490.3475    
   4693000   149.99799     -1.330782e+08  -7774.8479      1490.3618    
   4694000   150.0055      -1.3307817e+08 -7770.9963      1490.376     
   4695000   150.01851     -1.3307811e+08 -7771.7327      1490.3903    
   4696000   150.00353     -1.3307783e+08 -7773.7584      1490.4045    
   4697000   149.99715     -1.3307771e+08 -7775.8         1490.4188    
   4698000   150.00119     -1.3307759e+08 -7783.222       1490.433     
   4699000   150.00118     -1.3307746e+08 -7783.0211      1490.4472    
   4700000   149.98909     -1.330773e+08  -7783.1851      1490.4615    
   4701000   149.97073     -1.3307715e+08 -7775.3485      1490.4757    
   4702000   149.97865     -1.3307724e+08 -7781.996       1490.49      
   4703000   149.95246     -1.33077e+08   -7784.4502      1490.5042    
   4704000   150.00236     -1.3307697e+08 -7790.3764      1490.5185    
   4705000   149.99719     -1.3307675e+08 -7791.6055      1490.5327    
   4706000   149.99497     -1.3307659e+08 -7793.8865      1490.5469    
   4707000   149.96249     -1.3307639e+08 -7793.3347      1490.5612    
   4708000   150.00465     -1.3307663e+08 -7792.2104      1490.5754    
   4709000   150.02603     -1.330764e+08  -7791.6764      1490.5897    
   4710000   149.96854     -1.3307625e+08 -7792.1541      1490.6039    
   4711000   149.99831     -1.3307633e+08 -7793.8968      1490.6182    
   4712000   149.99161     -1.330762e+08  -7797.1871      1490.6324    
   4713000   149.973       -1.3307599e+08 -7797.4396      1490.6466    
   4714000   149.98392     -1.33076e+08   -7801.6365      1490.6609    
   4715000   149.99291     -1.3307601e+08 -7804.0652      1490.6751    
   4716000   149.98943     -1.3307577e+08 -7806.2208      1490.6894    
   4717000   149.9801      -1.3307569e+08 -7811.8901      1490.7036    
   4718000   149.99019     -1.3307547e+08 -7806.6372      1490.7178    
   4719000   149.9645      -1.3307543e+08 -7808.8443      1490.7321    
   4720000   149.99196     -1.330754e+08  -7807.4264      1490.7463    
   4721000   150.02126     -1.3307513e+08 -7816.217       1490.7606    
   4722000   149.97983     -1.3307497e+08 -7820.8002      1490.7748    
   4723000   150.02583     -1.330749e+08  -7822.8558      1490.7891    
   4724000   149.99575     -1.3307481e+08 -7818.6653      1490.8033    
   4725000   150.00022     -1.3307482e+08 -7822.6908      1490.8175    
   4726000   149.99607     -1.3307461e+08 -7820.3723      1490.8318    
   4727000   150.02294     -1.3307449e+08 -7829.2295      1490.846     
   4728000   150.00358     -1.3307428e+08 -7827.899       1490.8603    
   4729000   150.01971     -1.3307423e+08 -7834.5227      1490.8745    
   4730000   150.01234     -1.3307408e+08 -7826.5384      1490.8888    
   4731000   150.0034      -1.3307393e+08 -7831.0174      1490.903     
   4732000   149.99337     -1.3307392e+08 -7832.2995      1490.9172    
   4733000   149.98518     -1.3307388e+08 -7836.8197      1490.9315    
   4734000   149.9568      -1.3307366e+08 -7837.882       1490.9457    
   4735000   149.96616     -1.3307355e+08 -7841.1753      1490.96      
   4736000   149.98833     -1.3307362e+08 -7840.7652      1490.9742    
   4737000   149.95719     -1.3307348e+08 -7843.3949      1490.9885    
   4738000   149.97633     -1.3307342e+08 -7848.0565      1491.0027    
   4739000   149.99969     -1.3307319e+08 -7854.1468      1491.0169    
   4740000   150.00038     -1.3307308e+08 -7852.3625      1491.0312    
   4741000   150.00057     -1.3307311e+08 -7849.9116      1491.0454    
   4742000   149.99286     -1.3307305e+08 -7846.2924      1491.0597    
   4743000   149.99625     -1.3307273e+08 -7847.096       1491.0739    
   4744000   150.0076      -1.3307257e+08 -7853.7496      1491.0882    
   4745000   150.00965     -1.3307242e+08 -7858.379       1491.1024    
   4746000   150.02245     -1.330724e+08  -7857.3205      1491.1166    
   4747000   149.98962     -1.330723e+08  -7851.2311      1491.1309    
   4748000   150.0066      -1.3307226e+08 -7851.4424      1491.1451    
   4749000   149.98751     -1.3307203e+08 -7857.7713      1491.1594    
   4750000   149.99797     -1.3307192e+08 -7866.0687      1491.1736    
   4751000   149.99805     -1.3307174e+08 -7869.9787      1491.1878    
   4752000   149.99708     -1.3307169e+08 -7866.9629      1491.2021    
   4753000   149.99411     -1.3307163e+08 -7871.0666      1491.2163    
   4754000   149.96816     -1.3307146e+08 -7872.9298      1491.2306    
   4755000   149.95716     -1.3307141e+08 -7878.1294      1491.2448    
   4756000   149.9764      -1.3307131e+08 -7872.6262      1491.2591    
   4757000   150.00385     -1.3307125e+08 -7872.3546      1491.2733    
   4758000   150.01284     -1.330711e+08  -7873.5024      1491.2875    
   4759000   150.00054     -1.3307102e+08 -7878.6534      1491.3018    
   4760000   149.98393     -1.3307084e+08 -7878.8515      1491.316     
   4761000   150.00253     -1.3307076e+08 -7880.4793      1491.3303    
   4762000   149.99555     -1.3307063e+08 -7877.1369      1491.3445    
   4763000   149.99624     -1.3307046e+08 -7879.3106      1491.3588    
   4764000   149.98354     -1.3307036e+08 -7884.718       1491.373     
   4765000   149.99168     -1.3307022e+08 -7884.3446      1491.3872    
   4766000   149.97371     -1.3307004e+08 -7883.4624      1491.4015    
   4767000   149.97999     -1.3307007e+08 -7892.1599      1491.4157    
   4768000   149.96607     -1.3307004e+08 -7892.1233      1491.43      
   4769000   149.97843     -1.3306992e+08 -7898.5457      1491.4442    
   4770000   149.98657     -1.3306987e+08 -7895.4396      1491.4585    
   4771000   150.00451     -1.3306965e+08 -7897.4546      1491.4727    
   4772000   150.00783     -1.3306951e+08 -7904.1975      1491.4869    
   4773000   150.00156     -1.330693e+08  -7909.5148      1491.5012    
   4774000   149.99982     -1.330694e+08  -7904.4121      1491.5154    
   4775000   149.97668     -1.3306911e+08 -7902.9074      1491.5297    
   4776000   150.00654     -1.3306911e+08 -7896.8688      1491.5439    
   4777000   149.96608     -1.3306888e+08 -7896.2137      1491.5581    
   4778000   150.02713     -1.3306895e+08 -7903.173       1491.5724    
   4779000   150.00201     -1.330686e+08  -7907.9957      1491.5866    
   4780000   149.98852     -1.3306857e+08 -7913.7762      1491.6009    
   4781000   149.96713     -1.3306857e+08 -7918.3456      1491.6151    
   4782000   149.9682      -1.3306845e+08 -7913.5471      1491.6294    
   4783000   149.98166     -1.3306822e+08 -7914.5503      1491.6436    
   4784000   150.02566     -1.3306822e+08 -7917.0067      1491.6578    
   4785000   150.02121     -1.3306811e+08 -7918.9235      1491.6721    
   4786000   150.0313      -1.3306807e+08 -7924.7402      1491.6863    
   4787000   150.02694     -1.3306781e+08 -7923.4071      1491.7006    
   4788000   150.00299     -1.3306768e+08 -7924.712       1491.7148    
   4789000   149.99243     -1.3306741e+08 -7928.0281      1491.7291    
   4790000   150.01626     -1.3306748e+08 -7922.9907      1491.7433    
   4791000   150.02788     -1.3306746e+08 -7925.2067      1491.7575    
   4792000   150.02022     -1.3306729e+08 -7931.8356      1491.7718    
