LAMMPS (23 Jun 2022)
KOKKOS mode is enabled (src/KOKKOS/kokkos.cpp:105)
  will use up to 4 GPU(s) per node
  using 1 OpenMP thread(s) per MPI task
package kokkos
package kokkos neigh half newton off
#LAMMPS input file

# ------------------------ INITIALIZATION ----------------------------
processors    * * *
units         metal
dimension    3
boundary    p    p    p
atom_style   charge
atom_modify map array sort 0 1

#--------------------------- LAMMPS Data File--------------------------

read_data    relaxed_step.lmp #reset_relaxed.lmp # model_4.lmp # pre_strained.lmp # High_sep_Cu_45.lmp # Cu_111_FR_45_MIN.lmp
Reading data file ...
  orthogonal box = (-314.8477 -522.43942 600) to (1109.3869 540.14923 1100)
  4 by 4 by 2 MPI processor grid
  reading atoms ...
  37948320 atoms
  reading velocities ...
  37948320 velocities
  read_data CPU = 136.221 seconds
#read_dump   dump.min_1862000.lammpstrj 1862000 x y z vx vy vz
variable  temp equal 400
variable  temp_init equal ${temp}*2
variable  temp_init equal 400*2
variable  sratex equal 5e-6 # in 1/ps (0.5 strain after 10ns)
# ------------------------ FORCE FIELDS ------------------------------
pair_style    eam/alloy
pair_coeff    * * Cu01.eam.alloy.txt Cu # Cu

#------------------------- SETTINGS ---------------------------------

#change_box        all x scale 1.015 remap units box

compute csym all centro/atom fcc
#compute peratom all pe/atom

# compute stresses
#compute       sf all stress/atom NULL

#-------------For Lorentz Forces from QEq----------------------------
# Apply forces
#variable qfx atomfile input_fx_new.txt
#variable qfy atomfile input_fy_new.txt
#variable qfz atomfile input_fz_new.txt
#variable qe atom  -(x*v_qfx+y*v_qfy+z*v_qfz)

#fix force_q1 all addforce v_qfx v_qfy v_qfz energy v_qe
#fix_modify force_q1 energy yes

#delete_atoms group exclude
#fix freez hold setforce 0 0 0
#fix_modify force_q2 energy yes
thermo 1000
thermo_style custom step temp pe press lx
thermo_modify flush yes
#min_style fire
#minimize 0.0 1e-4 100000 100000
#--------Thermal Relax---------------------------
velocity all create ${temp_init} 200 rot no dist gaussian
velocity all create 800 200 rot no dist gaussian
timestep  0.002
fix 1 all langevin ${temp} ${temp} 5 200
fix 1 all langevin 400 ${temp} 5 200
fix 1 all langevin 400 400 5 200
fix ensemble all nve
run 50000
Neighbor list info ...
  update every 1 steps, delay 10 steps, check yes
  max neighbors/atom: 2000, page size: 100000
  master list distance cutoff = 7.506786
  ghost atom cutoff = 7.506786
  binsize = 7.506786, bins = 190 142 67
  2 neighbor lists, perpetual/occasional/extra = 1 1 0
  (1) pair eam/alloy/kk, perpetual
      attributes: half, newton off, kokkos_device
      pair build: half/bin/kk/device
      stencil: full/bin/3d
      bin: kk/device
  (2) compute centro/atom, occasional
      attributes: full, newton off
      pair build: full/bin/atomonly
      stencil: full/bin/3d
      bin: standard
Per MPI rank memory allocation (min/avg/max) = 419 | 460.3 | 502.1 Mbytes
   Step          Temp          PotEng         Press            Lx      
         0   800           -1.3404495e+08  5196.3763      1424.2346    
      1000   400.35639     -1.3208687e+08  8674.4985      1424.2346    
      2000   396.97696     -1.3206659e+08  3425.3733      1424.2346    
      3000   392.68721     -1.3202498e+08 -924.28609      1424.2346    
      4000   397.12454     -1.3202579e+08  733.42274      1424.2346    
      5000   400.53627     -1.3203859e+08  3163.0214      1424.2346    
      6000   401.61166     -1.3204803e+08  5372.0051      1424.2346    
      7000   400.75948     -1.3204945e+08  5135.0003      1424.2346    
      8000   399.64624     -1.3204502e+08  3828.2865      1424.2346    
      9000   398.62149     -1.3203699e+08  2584.4648      1424.2346    
     10000   398.88943     -1.3203251e+08  2298.6032      1424.2346    
     11000   399.84372     -1.3203492e+08  2984.4332      1424.2346    
     12000   400.43634     -1.3203858e+08  3693.3305      1424.2346    
     13000   400.63258     -1.3204152e+08  4113.5611      1424.2346    
     14000   400.26307     -1.3204112e+08  3844.6136      1424.2346    
     15000   399.83656     -1.3203937e+08  3501.5893      1424.2346    
     16000   399.65825     -1.320376e+08   3208.8914      1424.2346    
     17000   400.01157     -1.3203844e+08  3321.7655      1424.2346    
     18000   400.08654     -1.320385e+08   3491.6964      1424.2346    
     19000   400.12448     -1.320395e+08   3671.9802      1424.2346    
     20000   400.05248     -1.3203964e+08  3639.0828      1424.2346    
     21000   400.02444     -1.3203934e+08  3537.7399      1424.2346    
     22000   399.94896     -1.3203866e+08  3422.899       1424.2346    
     23000   399.90857     -1.3203824e+08  3408.6065      1424.2346    
     24000   400.05994     -1.320388e+08   3459.5518      1424.2346    
     25000   400.05825     -1.3203962e+08  3507.4556      1424.2346    
     26000   400.05345     -1.3203939e+08  3537.9734      1424.2346    
     27000   400.06722     -1.3203926e+08  3516.6807      1424.2346    
     28000   399.92129     -1.3203897e+08  3500.3624      1424.2346    
     29000   399.95357     -1.3203924e+08  3477.2865      1424.2346    
     30000   399.97095     -1.320389e+08   3489.1023      1424.2346    
     31000   399.93255     -1.3203891e+08  3498.3679      1424.2346    
     32000   400.00946     -1.320392e+08   3513.42        1424.2346    
     33000   400.0257      -1.3203917e+08  3507.762       1424.2346    
     34000   399.99866     -1.320391e+08   3501.4032      1424.2346    
     35000   400.01213     -1.3203887e+08  3492.2664      1424.2346    
     36000   399.97249     -1.3203866e+08  3497.0567      1424.2346    
     37000   400.06155     -1.3203914e+08  3494.4852      1424.2346    
     38000   400.01966     -1.3203922e+08  3500.4027      1424.2346    
     39000   399.99089     -1.3203924e+08  3506.4833      1424.2346    
     40000   399.97302     -1.3203961e+08  3508.799       1424.2346    
     41000   399.98006     -1.3203929e+08  3500.7944      1424.2346    
     42000   400.01744     -1.320388e+08   3500.9167      1424.2346    
     43000   400.00814     -1.320385e+08   3490.5308      1424.2346    
     44000   400.12985     -1.3203886e+08  3499.5668      1424.2346    
     45000   400.05224     -1.3203904e+08  3507.0871      1424.2346    
     46000   400.08784     -1.3203866e+08  3511.433       1424.2346    
     47000   400.00695     -1.3203862e+08  3498.4409      1424.2346    
     48000   400.03728     -1.3203939e+08  3496.1076      1424.2346    
     49000   399.97526     -1.3203918e+08  3491.1412      1424.2346    
     50000   399.99511     -1.3203957e+08  3497.2458      1424.2346    
Loop time of 684.37 on 32 procs for 50000 steps with 37948320 atoms

Performance: 12.625 ns/day, 1.901 hours/ns, 73.060 timesteps/s
72.6% CPU use with 32 MPI tasks x 1 OpenMP threads

MPI task timing breakdown:
Section |  min time  |  avg time  |  max time  |%varavg| %total
---------------------------------------------------------------
Pair    | 232.84     | 249.72     | 264.23     |  55.0 | 36.49
Neigh   | 25.604     | 39.248     | 55.556     | 131.5 |  5.73
Comm    | 41.384     | 54.19      | 67.471     | 165.4 |  7.92
Output  | 0.011239   | 0.50292    | 0.8194     |  41.1 |  0.07
Modify  | 191.59     | 267.34     | 342.42     | 440.5 | 39.06
Other   |            | 73.37      |            |       | 10.72

Nlocal:    1.18588e+06 ave 1.50541e+06 max      855098 min
Histogram: 16 0 0 0 0 0 0 0 0 16
Nghost:         185141 ave      217301 max      152184 min
Histogram: 16 0 0 0 0 0 0 0 0 16
Neighs:    8.59003e+07 ave 1.09053e+08 max 6.19459e+07 min
Histogram: 16 0 0 0 0 0 0 0 0 16
FullNghs:            0 ave           0 max           0 min
Histogram: 32 0 0 0 0 0 0 0 0 0

Total # of neighbors = 2.7488084e+09
Ave neighs/atom = 72.435577
Neighbor list builds = 966
Dangerous builds = 0
unfix ensemble
write_data ${temp}_relaxed_config.lmp
write_data 400_relaxed_config.lmp
System init for write_data ...
#unfix freez
######################################
## NVT Langevin ##
#variable a loop 50
#label loop

#variable Ti equal ${temp}+($a-1)*4
#variable Tf equal ${temp}+$a*4
#reset_ids
#change_box all x scale ${eps} remap units box
fix        2 all deform 1 x erate ${sratex} units box remap x
fix        2 all deform 1 x erate 5e-06 units box remap x
#fix 1 all langevin ${temp} ${temp} 5 98

# Write dump file
#dump        shear all custom 500000 dump.min_*.lammpstrj id x y z # vx vy vz

#dump        defect all custom 100 dump.defect_*.lammpstrj id x y z c_csym
#dump_modify defect thresh c_csym <= 10 thresh c_csym > 4

fix         ensemble all nve
run 5000000
Per MPI rank memory allocation (min/avg/max) = 418.9 | 460.2 | 502 Mbytes
   Step          Temp          PotEng         Press            Lx      
     50000   399.99511     -1.3203957e+08  3497.2458      1424.2346    
     51000   399.97271     -1.3203974e+08  3483.6955      1424.2488    
     52000   399.95305     -1.3203919e+08  3487.5556      1424.2631    
     53000   400.02571     -1.3203955e+08  3488.9864      1424.2773    
     54000   400.02475     -1.3203923e+08  3490.1545      1424.2915    
     55000   399.9312      -1.3203914e+08  3488.5316      1424.3058    
     56000   400.02061     -1.320394e+08   3478.5502      1424.32      
     57000   399.97005     -1.3203915e+08  3476.2113      1424.3343    
     58000   400.0092      -1.3203904e+08  3469.8555      1424.3485    
     59000   400.00253     -1.3203899e+08  3475.4403      1424.3628    
     60000   400.02388     -1.3203956e+08  3466.867       1424.377     
     61000   399.97662     -1.3203911e+08  3478.3823      1424.3912    
     62000   400.01652     -1.3203917e+08  3472.6959      1424.4055    
     63000   399.98549     -1.3203909e+08  3462.1905      1424.4197    
     64000   399.98095     -1.3203875e+08  3450.5756      1424.434     
     65000   400.05128     -1.3203919e+08  3449.9102      1424.4482    
     66000   400.05593     -1.3203885e+08  3447.6561      1424.4625    
     67000   400.01209     -1.32039e+08    3446.7463      1424.4767    
     68000   399.99152     -1.3203917e+08  3444.5034      1424.4909    
     69000   400.05899     -1.3203925e+08  3446.8375      1424.5052    
     70000   399.98488     -1.3203931e+08  3439.5149      1424.5194    
     71000   399.97221     -1.320393e+08   3431.7884      1424.5337    
     72000   399.9504      -1.3203909e+08  3426.2019      1424.5479    
     73000   399.96129     -1.3203896e+08  3420.4383      1424.5622    
     74000   400.00438     -1.3203887e+08  3428.0177      1424.5764    
     75000   400.08743     -1.3203907e+08  3430.3104      1424.5906    
     76000   400.06598     -1.3203911e+08  3426.2649      1424.6049    
     77000   399.92412     -1.3203903e+08  3418.3186      1424.6191    
     78000   399.97571     -1.320394e+08   3415.9997      1424.6334    
     79000   399.96886     -1.3203868e+08  3413.1806      1424.6476    
     80000   399.96016     -1.3203851e+08  3411.7336      1424.6618    
     81000   399.95272     -1.3203883e+08  3400.2175      1424.6761    
     82000   399.98202     -1.3203915e+08  3415.1751      1424.6903    
     83000   400.08778     -1.3203938e+08  3408.0432      1424.7046    
     84000   400.06732     -1.320393e+08   3408.1862      1424.7188    
     85000   399.98229     -1.3203859e+08  3396.8184      1424.7331    
     86000   400.03421     -1.3203886e+08  3397.2779      1424.7473    
     87000   400.04582     -1.3203909e+08  3387.3799      1424.7615    
     88000   399.9901      -1.3203899e+08  3382.8275      1424.7758    
     89000   400.02802     -1.3203903e+08  3383.476       1424.79      
     90000   399.95784     -1.3203886e+08  3394.1657      1424.8043    
     91000   399.94215     -1.3203921e+08  3391.1387      1424.8185    
     92000   399.91347     -1.3203922e+08  3386.1452      1424.8328    
     93000   399.94137     -1.3203896e+08  3372.9754      1424.847     
     94000   399.97037     -1.3203932e+08  3360.5778      1424.8612    
     95000   400.00979     -1.3203951e+08  3364.7616      1424.8755    
     96000   399.93465     -1.3203915e+08  3374.9934      1424.8897    
     97000   399.99538     -1.3203945e+08  3362.2606      1424.904     
     98000   399.99495     -1.3203899e+08  3357.2595      1424.9182    
     99000   399.99858     -1.3203863e+08  3357.2621      1424.9325    
    100000   399.99898     -1.3203925e+08  3355.4219      1424.9467    
    101000   399.98251     -1.3203892e+08  3342.7222      1424.9609    
    102000   400.03103     -1.3203881e+08  3345.9538      1424.9752    
    103000   400.06035     -1.3203858e+08  3344.8108      1424.9894    
    104000   400.08945     -1.320388e+08   3353.2449      1425.0037    
    105000   400.09968     -1.3203906e+08  3348.5898      1425.0179    
    106000   400.00882     -1.3203854e+08  3347.0699      1425.0322    
    107000   400.01026     -1.3203872e+08  3339.959       1425.0464    
    108000   400.13805     -1.3203888e+08  3334.7019      1425.0606    
    109000   399.98328     -1.3203839e+08  3320.95        1425.0749    
    110000   399.98085     -1.3203849e+08  3322.2898      1425.0891    
    111000   399.9828      -1.3203925e+08  3316.4733      1425.1034    
    112000   399.92272     -1.3203894e+08  3315.21        1425.1176    
    113000   400.04484     -1.3203903e+08  3316.2158      1425.1318    
    114000   400.06107     -1.3203896e+08  3319.1362      1425.1461    
    115000   400.04778     -1.3203893e+08  3310.6748      1425.1603    
    116000   400.06795     -1.3203897e+08  3311.3685      1425.1746    
    117000   400.01808     -1.3203884e+08  3299.1996      1425.1888    
    118000   400.0793      -1.3203918e+08  3302.6684      1425.2031    
    119000   399.969       -1.3203898e+08  3310.1411      1425.2173    
    120000   400.02529     -1.3203919e+08  3307.4669      1425.2315    
    121000   399.97704     -1.3203884e+08  3296.9074      1425.2458    
    122000   400.03611     -1.32039e+08    3284.8676      1425.26      
    123000   400.09265     -1.3203926e+08  3272.4326      1425.2743    
    124000   399.96624     -1.3203868e+08  3275.0174      1425.2885    
    125000   399.96893     -1.3203885e+08  3288.4183      1425.3028    
    126000   399.98834     -1.3203949e+08  3286.7263      1425.317     
    127000   399.93073     -1.3203931e+08  3286.7847      1425.3312    
    128000   399.91467     -1.3203886e+08  3282.3897      1425.3455    
    129000   400.03052     -1.3203859e+08  3277.6167      1425.3597    
    130000   400.02978     -1.3203901e+08  3278.6495      1425.374     
    131000   399.93924     -1.3203846e+08  3281.9055      1425.3882    
    132000   399.89465     -1.3203925e+08  3261.3678      1425.4025    
    133000   400.02922     -1.3203914e+08  3258.7234      1425.4167    
    134000   400.00214     -1.3203853e+08  3254.3864      1425.4309    
    135000   400.11254     -1.3203861e+08  3253.068       1425.4452    
    136000   400.05854     -1.3203842e+08  3253.6437      1425.4594    
    137000   400.06853     -1.3203853e+08  3252.1398      1425.4737    
    138000   400.07243     -1.3203859e+08  3242.9832      1425.4879    
    139000   399.97646     -1.3203777e+08  3246.5655      1425.5021    
    140000   400.00429     -1.3203858e+08  3241.1182      1425.5164    
    141000   400.00458     -1.3203847e+08  3248.7085      1425.5306    
    142000   400.03389     -1.3203869e+08  3245.0901      1425.5449    
    143000   400.01803     -1.3203881e+08  3241.0908      1425.5591    
    144000   399.99036     -1.3203846e+08  3229.0732      1425.5734    
    145000   400.00376     -1.3203872e+08  3226.4113      1425.5876    
    146000   399.98621     -1.3203894e+08  3224.1987      1425.6018    
    147000   399.99621     -1.3203876e+08  3238.9783      1425.6161    
    148000   399.96605     -1.3203877e+08  3226.0367      1425.6303    
    149000   399.91953     -1.320388e+08   3220.4664      1425.6446    
    150000   399.92108     -1.3203877e+08  3213.2656      1425.6588    
    151000   400.00839     -1.3203891e+08  3204.7006      1425.6731    
    152000   400.02327     -1.3203892e+08  3203.601       1425.6873    
    153000   399.97409     -1.3203869e+08  3206.5476      1425.7015    
    154000   399.98743     -1.3203871e+08  3200.4621      1425.7158    
    155000   400.06535     -1.3203875e+08  3197.8117      1425.73      
    156000   399.96192     -1.3203851e+08  3195.7886      1425.7443    
    157000   400.02591     -1.3203881e+08  3184.4662      1425.7585    
    158000   400.07962     -1.3203873e+08  3190.6573      1425.7728    
    159000   400.02918     -1.3203852e+08  3189.7674      1425.787     
    160000   400.01025     -1.320389e+08   3190.7152      1425.8012    
    161000   399.98538     -1.3203857e+08  3182.4583      1425.8155    
    162000   399.95553     -1.3203865e+08  3170.716       1425.8297    
    163000   399.94997     -1.3203845e+08  3167.4636      1425.844     
    164000   399.96474     -1.3203847e+08  3163.1377      1425.8582    
    165000   400.01836     -1.320389e+08   3153.389       1425.8724    
    166000   400.01819     -1.3203882e+08  3162.3373      1425.8867    
    167000   399.99193     -1.3203861e+08  3165.1604      1425.9009    
    168000   400.07131     -1.320386e+08   3167.501       1425.9152    
    169000   400.05134     -1.320388e+08   3151.6414      1425.9294    
    170000   400.06271     -1.3203884e+08  3144.7626      1425.9437    
    171000   399.91545     -1.3203834e+08  3141.3257      1425.9579    
    172000   400.0606      -1.3203875e+08  3146.7249      1425.9721    
    173000   399.93286     -1.3203856e+08  3138.3919      1425.9864    
    174000   399.94968     -1.3203875e+08  3134.5539      1426.0006    
    175000   399.95686     -1.3203826e+08  3127.7961      1426.0149    
    176000   399.95704     -1.3203844e+08  3140.5438      1426.0291    
    177000   400.04889     -1.3203846e+08  3142.6183      1426.0434    
    178000   399.99318     -1.3203834e+08  3143.789       1426.0576    
    179000   400.06976     -1.3203834e+08  3130.859       1426.0718    
    180000   400.03902     -1.3203811e+08  3123.6538      1426.0861    
    181000   399.99622     -1.3203803e+08  3118.7966      1426.1003    
    182000   400.02209     -1.3203824e+08  3113.2255      1426.1146    
    183000   400.01664     -1.3203828e+08  3117.7756      1426.1288    
    184000   400.11174     -1.320388e+08   3114.2167      1426.1431    
    185000   400.00482     -1.320386e+08   3109.4922      1426.1573    
    186000   400.05036     -1.3203841e+08  3107.4938      1426.1715    
    187000   400.00681     -1.3203837e+08  3112.0199      1426.1858    
    188000   400.03297     -1.3203851e+08  3107.0361      1426.2       
    189000   399.97209     -1.3203819e+08  3101.2924      1426.2143    
    190000   400.07996     -1.3203833e+08  3099.4189      1426.2285    
    191000   400.04458     -1.3203819e+08  3098.3384      1426.2428    
    192000   399.97194     -1.3203814e+08  3095.9243      1426.257     
    193000   400.02578     -1.3203849e+08  3090.3238      1426.2712    
    194000   399.96923     -1.3203842e+08  3083.7224      1426.2855    
    195000   399.93174     -1.320386e+08   3082.0389      1426.2997    
    196000   399.94337     -1.3203893e+08  3078.3656      1426.314     
    197000   399.88312     -1.3203853e+08  3078.3625      1426.3282    
    198000   399.98692     -1.3203872e+08  3083.7956      1426.3424    
    199000   399.93959     -1.3203846e+08  3079.4003      1426.3567    
    200000   399.89466     -1.3203816e+08  3069.6302      1426.3709    
    201000   400.04515     -1.3203842e+08  3065.0878      1426.3852    
    202000   399.96908     -1.3203817e+08  3065.5275      1426.3994    
    203000   400.00578     -1.3203833e+08  3063.173       1426.4137    
    204000   400.11294     -1.3203845e+08  3070.7966      1426.4279    
    205000   400.07657     -1.3203865e+08  3059.2479      1426.4421    
    206000   400.09664     -1.3203854e+08  3053.2069      1426.4564    
    207000   400.07663     -1.3203838e+08  3040.9992      1426.4706    
    208000   400.04638     -1.3203843e+08  3036.0142      1426.4849    
    209000   400.06395     -1.3203796e+08  3035.9017      1426.4991    
    210000   399.99721     -1.320379e+08   3037.0788      1426.5134    
    211000   399.97209     -1.3203774e+08  3037.0839      1426.5276    
    212000   400.02625     -1.3203811e+08  3038.3172      1426.5418    
    213000   400.11376     -1.3203821e+08  3037.5098      1426.5561    
    214000   400.00997     -1.3203798e+08  3034.2982      1426.5703    
    215000   399.99453     -1.3203782e+08  3016.373       1426.5846    
    216000   400.08342     -1.3203818e+08  3027.164       1426.5988    
    217000   400.04116     -1.3203816e+08  3025.4043      1426.6131    
    218000   400.0788      -1.3203823e+08  3027.97        1426.6273    
    219000   400.066       -1.3203789e+08  3014.1248      1426.6415    
    220000   400.01007     -1.320376e+08   3006.3944      1426.6558    
    221000   400.09391     -1.3203807e+08  2999.8439      1426.67      
    222000   399.99877     -1.3203749e+08  3010.9219      1426.6843    
    223000   400.02572     -1.3203784e+08  3008.7086      1426.6985    
    224000   400.00582     -1.3203827e+08  2991.4295      1426.7127    
    225000   400.0009      -1.3203812e+08  2992.531       1426.727     
    226000   400.01431     -1.3203824e+08  2998.5867      1426.7412    
    227000   399.9905      -1.3203843e+08  3000.6817      1426.7555    
    228000   400.02798     -1.3203834e+08  3003.7694      1426.7697    
    229000   399.92786     -1.3203796e+08  2992.6433      1426.784     
    230000   399.98087     -1.3203807e+08  2978.1781      1426.7982    
    231000   399.96011     -1.3203803e+08  2975.6863      1426.8124    
    232000   399.98411     -1.3203835e+08  2972.4113      1426.8267    
    233000   399.9486      -1.3203826e+08  2978.3092      1426.8409    
    234000   400.0163      -1.3203839e+08  2976.9173      1426.8552    
    235000   399.90255     -1.320382e+08   2971.3103      1426.8694    
    236000   399.96337     -1.3203842e+08  2960.4933      1426.8837    
    237000   399.97146     -1.3203843e+08  2965.5982      1426.8979    
    238000   399.94029     -1.3203818e+08  2969.4202      1426.9121    
    239000   399.99783     -1.3203842e+08  2979.5565      1426.9264    
    240000   400.0152      -1.3203834e+08  2966.0669      1426.9406    
    241000   399.90042     -1.3203758e+08  2961.7473      1426.9549    
    242000   400.01231     -1.3203783e+08  2951.5052      1426.9691    
    243000   400.08011     -1.3203812e+08  2951.2005      1426.9834    
    244000   400.1037      -1.3203795e+08  2956.6546      1426.9976    
    245000   400.03048     -1.3203812e+08  2956.0218      1427.0118    
    246000   400.04244     -1.3203815e+08  2950.566       1427.0261    
    247000   399.99615     -1.3203809e+08  2938.5254      1427.0403    
    248000   400.01343     -1.320379e+08   2931.1855      1427.0546    
    249000   399.95898     -1.32038e+08    2923.5632      1427.0688    
    250000   400.03445     -1.32038e+08    2931.9748      1427.083     
    251000   399.97828     -1.3203805e+08  2928.0318      1427.0973    
    252000   399.93983     -1.3203777e+08  2923.7789      1427.1115    
    253000   399.98665     -1.320378e+08   2919.2994      1427.1258    
    254000   400.00785     -1.3203765e+08  2921.7346      1427.14      
    255000   400.07023     -1.3203776e+08  2913.1366      1427.1543    
    256000   400.0405      -1.3203788e+08  2910.1197      1427.1685    
    257000   399.97097     -1.3203743e+08  2915.971       1427.1827    
    258000   399.99341     -1.3203775e+08  2905.1486      1427.197     
    259000   400.01352     -1.3203781e+08  2911.2561      1427.2112    
    260000   400.02851     -1.3203782e+08  2896.9582      1427.2255    
    261000   400.10669     -1.3203792e+08  2904.2507      1427.2397    
    262000   399.94311     -1.3203753e+08  2895.5079      1427.254     
    263000   399.98076     -1.3203775e+08  2896.9322      1427.2682    
    264000   400.03488     -1.3203786e+08  2901.0763      1427.2824    
    265000   400.04259     -1.3203778e+08  2891.9518      1427.2967    
    266000   400.05945     -1.320379e+08   2892.9009      1427.3109    
    267000   400.00545     -1.3203808e+08  2881.0239      1427.3252    
    268000   400.01775     -1.3203831e+08  2876.2656      1427.3394    
    269000   399.95143     -1.3203791e+08  2872.2681      1427.3537    
    270000   399.90469     -1.3203777e+08  2865.1831      1427.3679    
    271000   399.99866     -1.3203806e+08  2873.5946      1427.3821    
    272000   399.97366     -1.320377e+08   2865.3227      1427.3964    
    273000   400.0169      -1.3203785e+08  2875.1629      1427.4106    
    274000   399.93434     -1.3203737e+08  2873.1988      1427.4249    
    275000   399.92842     -1.3203747e+08  2858.6184      1427.4391    
    276000   399.98158     -1.3203761e+08  2854.2878      1427.4533    
    277000   400.04831     -1.3203727e+08  2856.1084      1427.4676    
    278000   400.03294     -1.3203755e+08  2857.3963      1427.4818    
    279000   400.02244     -1.320375e+08   2860.6109      1427.4961    
    280000   400.03753     -1.3203772e+08  2862.4857      1427.5103    
    281000   399.93986     -1.3203818e+08  2848.8554      1427.5246    
    282000   399.97323     -1.3203757e+08  2846.6465      1427.5388    
    283000   399.99356     -1.3203772e+08  2828.7771      1427.553     
    284000   400.06428     -1.3203809e+08  2825.8956      1427.5673    
    285000   400.04361     -1.3203783e+08  2825.4026      1427.5815    
    286000   399.98736     -1.3203743e+08  2835.4261      1427.5958    
    287000   399.99135     -1.3203754e+08  2829.5007      1427.61      
    288000   399.98294     -1.3203753e+08  2822.885       1427.6243    
    289000   399.96747     -1.3203773e+08  2814.4487      1427.6385    
    290000   399.99589     -1.3203789e+08  2815.2441      1427.6527    
    291000   399.94666     -1.3203778e+08  2824.0617      1427.667     
    292000   400.01815     -1.320383e+08   2828.3854      1427.6812    
    293000   399.98533     -1.3203804e+08  2826.9752      1427.6955    
    294000   400.0271      -1.3203797e+08  2806.5832      1427.7097    
    295000   399.97155     -1.3203736e+08  2800.5102      1427.724     
    296000   400.07149     -1.3203755e+08  2799.5016      1427.7382    
    297000   400.03358     -1.3203736e+08  2800.1735      1427.7524    
    298000   400.01289     -1.3203745e+08  2791.0024      1427.7667    
    299000   399.94635     -1.3203751e+08  2795.9119      1427.7809    
    300000   399.97767     -1.3203731e+08  2794.9814      1427.7952    
    301000   399.93807     -1.320372e+08   2790.0138      1427.8094    
    302000   399.89831     -1.3203751e+08  2785.3605      1427.8237    
    303000   399.97211     -1.3203751e+08  2781.9188      1427.8379    
    304000   399.99225     -1.3203785e+08  2780.3084      1427.8521    
    305000   400.02921     -1.3203768e+08  2778.9969      1427.8664    
    306000   399.97413     -1.3203753e+08  2778.397       1427.8806    
    307000   399.92995     -1.3203755e+08  2775.4931      1427.8949    
    308000   399.9126      -1.3203775e+08  2771.5733      1427.9091    
    309000   399.9464      -1.3203781e+08  2768.9279      1427.9233    
    310000   399.9902      -1.3203782e+08  2768.5271      1427.9376    
    311000   400.06975     -1.3203763e+08  2767.127       1427.9518    
    312000   400.01778     -1.320376e+08   2754.8389      1427.9661    
    313000   399.94463     -1.3203705e+08  2748.5667      1427.9803    
    314000   399.97937     -1.3203683e+08  2748.2303      1427.9946    
    315000   400.06138     -1.3203712e+08  2736.7489      1428.0088    
    316000   400.13403     -1.3203709e+08  2742.1027      1428.023     
    317000   400.10454     -1.3203663e+08  2744.822       1428.0373    
    318000   400.11992     -1.3203717e+08  2745.5002      1428.0515    
    319000   400.02443     -1.3203681e+08  2746.9828      1428.0658    
    320000   400.03974     -1.3203654e+08  2741.8402      1428.08      
    321000   400.1078      -1.3203701e+08  2734.2978      1428.0943    
    322000   400.05578     -1.320369e+08   2733.6224      1428.1085    
    323000   400.05121     -1.3203697e+08  2722.566       1428.1227    
    324000   400.02201     -1.320371e+08   2710.7205      1428.137     
    325000   399.94519     -1.3203704e+08  2706.3599      1428.1512    
    326000   400.03339     -1.3203715e+08  2710.1418      1428.1655    
    327000   399.99953     -1.320372e+08   2715.6175      1428.1797    
    328000   399.94687     -1.3203702e+08  2719.2218      1428.194     
    329000   400.04141     -1.3203719e+08  2710.2824      1428.2082    
    330000   400.0395      -1.3203712e+08  2706.1439      1428.2224    
    331000   399.96634     -1.3203708e+08  2712.3761      1428.2367    
    332000   399.95246     -1.3203703e+08  2714.0405      1428.2509    
    333000   399.98597     -1.3203669e+08  2708.7356      1428.2652    
    334000   399.93996     -1.3203675e+08  2694.8496      1428.2794    
    335000   399.98469     -1.3203665e+08  2685.8298      1428.2936    
    336000   400.02058     -1.3203669e+08  2678.2001      1428.3079    
    337000   400.00718     -1.3203648e+08  2690.564       1428.3221    
    338000   400.09065     -1.3203704e+08  2693.422       1428.3364    
    339000   400.04586     -1.3203698e+08  2697.4416      1428.3506    
    340000   400.00407     -1.3203691e+08  2684.1622      1428.3649    
    341000   399.99072     -1.3203701e+08  2667.6768      1428.3791    
    342000   399.97907     -1.3203725e+08  2653.6105      1428.3933    
    343000   399.89061     -1.3203676e+08  2662.4786      1428.4076    
    344000   400.10642     -1.3203698e+08  2677.8346      1428.4218    
    345000   400.15457     -1.3203652e+08  2678.7777      1428.4361    
    346000   399.98721     -1.3203615e+08  2663.4171      1428.4503    
    347000   399.99798     -1.3203651e+08  2646.0804      1428.4646    
    348000   400.00479     -1.3203658e+08  2653.9307      1428.4788    
    349000   399.9883      -1.3203629e+08  2654.6527      1428.493     
    350000   400.05533     -1.3203689e+08  2652.2267      1428.5073    
    351000   399.95402     -1.3203649e+08  2652.4353      1428.5215    
    352000   399.98096     -1.3203654e+08  2639.6473      1428.5358    
    353000   399.95792     -1.3203638e+08  2645.6086      1428.55      
    354000   400.00329     -1.3203623e+08  2643.8807      1428.5643    
    355000   400.13108     -1.320369e+08   2647.4902      1428.5785    
    356000   400.00039     -1.320367e+08   2620.4086      1428.5927    
    357000   400.01829     -1.3203681e+08  2625.7702      1428.607     
    358000   399.99874     -1.3203654e+08  2631.3967      1428.6212    
    359000   399.98668     -1.3203671e+08  2635.9168      1428.6355    
    360000   400.12922     -1.3203698e+08  2633.8131      1428.6497    
    361000   400.01949     -1.3203672e+08  2620.3072      1428.6639    
    362000   400.00856     -1.3203667e+08  2616.8836      1428.6782    
    363000   400.03245     -1.3203699e+08  2602.7904      1428.6924    
    364000   399.97945     -1.320363e+08   2606.8615      1428.7067    
    365000   400.02205     -1.3203666e+08  2618.5795      1428.7209    
    366000   399.9357      -1.3203689e+08  2607.4781      1428.7352    
    367000   399.87135     -1.3203688e+08  2610.8693      1428.7494    
    368000   399.90969     -1.3203708e+08  2606.0075      1428.7636    
    369000   399.96249     -1.3203696e+08  2602.3766      1428.7779    
    370000   399.92606     -1.3203695e+08  2590.1909      1428.7921    
    371000   399.94474     -1.3203674e+08  2587.2321      1428.8064    
    372000   399.99761     -1.3203635e+08  2588.5416      1428.8206    
    373000   399.99024     -1.3203613e+08  2601.1199      1428.8349    
    374000   400.04162     -1.3203655e+08  2590.5727      1428.8491    
    375000   399.99946     -1.3203663e+08  2584.3251      1428.8633    
    376000   400.01334     -1.3203638e+08  2576.975       1428.8776    
    377000   400.04225     -1.3203665e+08  2568.7679      1428.8918    
    378000   399.94789     -1.3203654e+08  2569.8734      1428.9061    
    379000   400.06217     -1.3203701e+08  2567.5998      1428.9203    
    380000   400.02597     -1.3203677e+08  2559.4219      1428.9346    
    381000   399.98937     -1.3203658e+08  2564.4362      1428.9488    
    382000   400.05934     -1.3203668e+08  2575.9064      1428.963     
    383000   399.98358     -1.3203596e+08  2573.9417      1428.9773    
    384000   400.00243     -1.3203665e+08  2561.2389      1428.9915    
    385000   400.08638     -1.3203682e+08  2549.8475      1429.0058    
    386000   399.97383     -1.3203603e+08  2550.2595      1429.02      
    387000   399.98025     -1.3203619e+08  2554.9693      1429.0343    
    388000   399.99279     -1.3203651e+08  2564.5779      1429.0485    
    389000   399.98058     -1.3203656e+08  2557.1147      1429.0627    
    390000   399.94783     -1.3203682e+08  2540.0791      1429.077     
    391000   399.92066     -1.3203612e+08  2528.8197      1429.0912    
    392000   399.94631     -1.3203629e+08  2529.5074      1429.1055    
    393000   400.01727     -1.3203644e+08  2530.6587      1429.1197    
    394000   400.03714     -1.3203669e+08  2541.0077      1429.1339    
    395000   400.02719     -1.3203611e+08  2535.0159      1429.1482    
    396000   400.00565     -1.3203591e+08  2530.3291      1429.1624    
    397000   400.03722     -1.3203605e+08  2518.03        1429.1767    
    398000   400.05008     -1.3203636e+08  2520.6686      1429.1909    
    399000   399.9439      -1.3203621e+08  2525.5875      1429.2052    
    400000   399.95091     -1.3203625e+08  2516.301       1429.2194    
    401000   400.00802     -1.3203633e+08  2520.1275      1429.2336    
    402000   399.95614     -1.320363e+08   2514.3463      1429.2479    
    403000   399.97482     -1.3203601e+08  2506.2772      1429.2621    
    404000   400.00655     -1.3203614e+08  2495.5722      1429.2764    
    405000   400.0542      -1.3203617e+08  2495.6633      1429.2906    
    406000   399.96241     -1.3203591e+08  2492.5715      1429.3049    
    407000   399.9758      -1.3203594e+08  2490.2143      1429.3191    
    408000   399.96612     -1.3203616e+08  2489.0716      1429.3333    
    409000   400.01009     -1.3203607e+08  2503.0725      1429.3476    
    410000   399.97474     -1.3203608e+08  2491.9724      1429.3618    
    411000   400.08305     -1.3203596e+08  2488.6223      1429.3761    
    412000   400.04405     -1.3203595e+08  2481.486       1429.3903    
    413000   399.95501     -1.3203593e+08  2470.2957      1429.4046    
    414000   400.02837     -1.3203625e+08  2475.691       1429.4188    
    415000   399.97501     -1.3203611e+08  2472.4927      1429.433     
    416000   399.96567     -1.3203588e+08  2474.9961      1429.4473    
    417000   399.90593     -1.3203597e+08  2468.6666      1429.4615    
    418000   399.92471     -1.3203596e+08  2471.437       1429.4758    
    419000   399.95438     -1.3203594e+08  2460.4636      1429.49      
    420000   399.98969     -1.3203606e+08  2458.5386      1429.5042    
    421000   400.02985     -1.3203609e+08  2460.4545      1429.5185    
    422000   400.00243     -1.3203589e+08  2459.345       1429.5327    
    423000   399.97145     -1.3203551e+08  2456.5153      1429.547     
    424000   399.98198     -1.3203558e+08  2451.2144      1429.5612    
    425000   400.04056     -1.320358e+08   2444.6711      1429.5755    
    426000   399.99961     -1.3203585e+08  2439.5585      1429.5897    
    427000   400.04428     -1.3203613e+08  2438.849       1429.6039    
    428000   400.04609     -1.3203582e+08  2443.9688      1429.6182    
    429000   399.97882     -1.3203564e+08  2432.8248      1429.6324    
    430000   399.98084     -1.3203583e+08  2428.0941      1429.6467    
    431000   400.02493     -1.32036e+08    2421.7881      1429.6609    
    432000   399.95395     -1.3203579e+08  2421.5944      1429.6752    
    433000   400.0041      -1.3203542e+08  2421.3269      1429.6894    
    434000   400.00092     -1.3203584e+08  2416.1417      1429.7036    
    435000   400.04081     -1.3203584e+08  2422.3106      1429.7179    
    436000   400.04012     -1.3203591e+08  2425.6061      1429.7321    
    437000   399.94132     -1.3203534e+08  2426.9501      1429.7464    
    438000   400.04886     -1.3203578e+08  2419.5899      1429.7606    
    439000   399.98682     -1.3203537e+08  2407.754       1429.7749    
    440000   399.95357     -1.3203572e+08  2396.8943      1429.7891    
    441000   399.93125     -1.3203569e+08  2397.6063      1429.8033    
    442000   400.03138     -1.3203536e+08  2400.12        1429.8176    
    443000   400.06515     -1.3203558e+08  2396.0063      1429.8318    
    444000   400.0653      -1.3203522e+08  2388.2655      1429.8461    
    445000   400.04697     -1.320352e+08   2382.8385      1429.8603    
    446000   400.0743      -1.3203519e+08  2392.0396      1429.8745    
    447000   400.11972     -1.320353e+08   2389.4227      1429.8888    
    448000   400.05577     -1.3203522e+08  2392.1952      1429.903     
    449000   400.06333     -1.3203518e+08  2376.3111      1429.9173    
    450000   400.01642     -1.3203537e+08  2375.8753      1429.9315    
    451000   400.11129     -1.3203518e+08  2378.4502      1429.9458    
    452000   400.03545     -1.3203502e+08  2375.8608      1429.96      
    453000   399.9763      -1.3203539e+08  2377.9193      1429.9742    
    454000   400.07168     -1.3203555e+08  2368.1107      1429.9885    
    455000   400.00502     -1.3203517e+08  2369.0635      1430.0027    
    456000   400.08018     -1.3203552e+08  2350.6979      1430.017     
    457000   400.04772     -1.3203532e+08  2353.218       1430.0312    
    458000   400.03774     -1.320352e+08   2348.8596      1430.0455    
    459000   399.97449     -1.3203512e+08  2352.4918      1430.0597    
    460000   400.04157     -1.320355e+08   2352.7533      1430.0739    
    461000   400.00549     -1.320352e+08   2344.7243      1430.0882    
    462000   399.91022     -1.3203528e+08  2344.0341      1430.1024    
    463000   400.02463     -1.3203549e+08  2339.0685      1430.1167    
    464000   399.94138     -1.32035e+08    2337.3726      1430.1309    
    465000   400.02602     -1.3203523e+08  2331.0037      1430.1452    
    466000   400.06157     -1.3203515e+08  2334.8543      1430.1594    
    467000   400.00019     -1.3203463e+08  2337.9961      1430.1736    
    468000   400.12077     -1.3203483e+08  2338.1003      1430.1879    
    469000   400.10515     -1.3203471e+08  2328.0579      1430.2021    
    470000   399.96398     -1.3203462e+08  2312.0796      1430.2164    
    471000   400.03012     -1.3203482e+08  2308.9868      1430.2306    
    472000   400.0356      -1.3203467e+08  2317.7782      1430.2448    
    473000   400.03251     -1.3203526e+08  2325.0569      1430.2591    
    474000   399.97925     -1.3203474e+08  2325.5087      1430.2733    
    475000   399.92891     -1.3203503e+08  2308.3463      1430.2876    
    476000   399.95061     -1.3203518e+08  2296.4375      1430.3018    
    477000   400.01378     -1.3203522e+08  2301.2562      1430.3161    
    478000   399.98661     -1.3203541e+08  2299.4647      1430.3303    
    479000   400.0041      -1.320353e+08   2304.0625      1430.3445    
    480000   400.03144     -1.3203523e+08  2299.9408      1430.3588    
    481000   400.00913     -1.3203508e+08  2300.0042      1430.373     
    482000   399.9482      -1.3203474e+08  2285.4491      1430.3873    
    483000   399.99201     -1.3203501e+08  2280.1052      1430.4015    
    484000   400.02755     -1.3203534e+08  2271.989       1430.4158    
    485000   399.96138     -1.3203471e+08  2277.803       1430.43      
    486000   400.05701     -1.3203497e+08  2282.936       1430.4442    
    487000   399.9672      -1.3203444e+08  2287.7361      1430.4585    
    488000   399.96593     -1.3203458e+08  2280.154       1430.4727    
    489000   400.00067     -1.3203481e+08  2271.2997      1430.487     
    490000   399.97036     -1.320345e+08   2259.214       1430.5012    
    491000   400.09087     -1.3203481e+08  2267.2487      1430.5155    
    492000   400.07003     -1.3203484e+08  2267.0796      1430.5297    
    493000   399.96579     -1.3203459e+08  2270.8788      1430.5439    
    494000   400.01338     -1.3203515e+08  2257.507       1430.5582    
    495000   399.95132     -1.3203509e+08  2258.7849      1430.5724    
    496000   399.99508     -1.320351e+08   2250.5297      1430.5867    
    497000   399.96186     -1.3203443e+08  2249.2943      1430.6009    
    498000   400.0295      -1.3203451e+08  2247.7176      1430.6152    
    499000   399.99004     -1.3203459e+08  2242.4902      1430.6294    
    500000   400.05722     -1.3203465e+08  2244.6508      1430.6436    
    501000   400.02926     -1.3203471e+08  2246.224       1430.6579    
    502000   400.01571     -1.3203412e+08  2238.2568      1430.6721    
    503000   400.03762     -1.3203442e+08  2228.9774      1430.6864    
    504000   400.089       -1.320345e+08   2223.9174      1430.7006    
    505000   399.92303     -1.3203428e+08  2224.1591      1430.7148    
    506000   400.07797     -1.3203433e+08  2235.2482      1430.7291    
    507000   399.98576     -1.320344e+08   2221.1225      1430.7433    
    508000   400.02761     -1.3203458e+08  2218.9344      1430.7576    
    509000   399.94147     -1.3203432e+08  2218.9425      1430.7718    
    510000   400.03243     -1.3203487e+08  2212.4896      1430.7861    
    511000   399.98104     -1.3203423e+08  2209.7886      1430.8003    
    512000   400.03166     -1.3203445e+08  2200.4062      1430.8145    
    513000   399.9849      -1.3203391e+08  2201.0536      1430.8288    
    514000   400.05775     -1.320345e+08   2201.5122      1430.843     
    515000   400.00197     -1.3203401e+08  2203.1061      1430.8573    
    516000   400.04684     -1.3203374e+08  2195.2814      1430.8715    
    517000   400.04352     -1.3203409e+08  2188.2832      1430.8858    
    518000   400.07058     -1.3203378e+08  2191.311       1430.9       
    519000   400.07962     -1.3203425e+08  2189.4486      1430.9142    
    520000   400.00127     -1.3203405e+08  2187.7945      1430.9285    
    521000   399.92754     -1.3203403e+08  2192.9864      1430.9427    
    522000   400.01255     -1.3203405e+08  2188.9485      1430.957     
    523000   400.05958     -1.3203393e+08  2188.8584      1430.9712    
    524000   400.06766     -1.3203394e+08  2178.6561      1430.9855    
    525000   400.02191     -1.3203394e+08  2182.6981      1430.9997    
    526000   400.04884     -1.3203389e+08  2168.6166      1431.0139    
    527000   400.10381     -1.3203428e+08  2170.1296      1431.0282    
    528000   400.01521     -1.3203402e+08  2162.6621      1431.0424    
    529000   399.97309     -1.3203405e+08  2163.5521      1431.0567    
    530000   399.96464     -1.3203375e+08  2158.7849      1431.0709    
    531000   399.97549     -1.3203402e+08  2161.3251      1431.0851    
    532000   399.93962     -1.3203354e+08  2146.6877      1431.0994    
    533000   400.02992     -1.320338e+08   2153.9177      1431.1136    
    534000   400.08022     -1.320336e+08   2157.9761      1431.1279    
    535000   399.96917     -1.3203367e+08  2156.9283      1431.1421    
    536000   400.00677     -1.3203404e+08  2145.6499      1431.1564    
    537000   400.03504     -1.320342e+08   2140.8244      1431.1706    
    538000   399.94988     -1.3203372e+08  2128.0322      1431.1848    
    539000   400.00843     -1.3203321e+08  2134.5677      1431.1991    
    540000   400.03214     -1.3203335e+08  2126.8876      1431.2133    
    541000   399.95728     -1.3203377e+08  2121.4056      1431.2276    
    542000   400.05946     -1.3203405e+08  2124.9577      1431.2418    
    543000   400.05493     -1.3203391e+08  2129.2432      1431.2561    
    544000   399.99309     -1.320339e+08   2127.0087      1431.2703    
    545000   400.02454     -1.3203378e+08  2124.2322      1431.2845    
    546000   399.95777     -1.3203346e+08  2112.5675      1431.2988    
    547000   400.0163      -1.3203368e+08  2107.2458      1431.313     
    548000   400.03057     -1.3203382e+08  2106.5692      1431.3273    
    549000   400.02141     -1.3203373e+08  2107.926       1431.3415    
    550000   399.99069     -1.3203324e+08  2099.7286      1431.3558    
    551000   399.96921     -1.320333e+08   2097.0299      1431.37      
    552000   399.9844      -1.3203356e+08  2088.41        1431.3842    
    553000   400.05225     -1.3203369e+08  2093.8623      1431.3985    
    554000   400.02298     -1.3203387e+08  2103.9647      1431.4127    
    555000   399.97553     -1.3203371e+08  2108.7295      1431.427     
    556000   399.85883     -1.320337e+08   2092.1097      1431.4412    
    557000   399.94222     -1.3203378e+08  2072.7677      1431.4554    
    558000   399.9187      -1.3203337e+08  2067.4577      1431.4697    
    559000   400.0469      -1.3203357e+08  2068.8286      1431.4839    
    560000   399.97369     -1.320337e+08   2079.5743      1431.4982    
    561000   400.01263     -1.3203389e+08  2078.3032      1431.5124    
    562000   400.08637     -1.3203405e+08  2077.0933      1431.5267    
    563000   399.97898     -1.3203369e+08  2073.3109      1431.5409    
    564000   399.87099     -1.3203314e+08  2077.5607      1431.5551    
    565000   399.93268     -1.3203327e+08  2062.8197      1431.5694    
    566000   399.98768     -1.3203333e+08  2058.7063      1431.5836    
    567000   400.04954     -1.3203334e+08  2049.8368      1431.5979    
    568000   399.97621     -1.320331e+08   2050.4333      1431.6121    
    569000   400.06423     -1.3203325e+08  2052.3899      1431.6264    
    570000   400.04835     -1.3203307e+08  2059.6634      1431.6406    
    571000   400.11603     -1.3203346e+08  2060.8118      1431.6548    
    572000   400.01344     -1.3203311e+08  2062.7313      1431.6691    
    573000   399.92514     -1.3203325e+08  2053.4013      1431.6833    
    574000   399.97632     -1.320335e+08   2038.1941      1431.6976    
    575000   399.94828     -1.3203332e+08  2037.1393      1431.7118    
    576000   399.92647     -1.3203278e+08  2023.2987      1431.7261    
    577000   400.04262     -1.3203269e+08  2028.8954      1431.7403    
    578000   400.08686     -1.3203274e+08  2025.3477      1431.7545    
    579000   400.06139     -1.3203303e+08  2030.6806      1431.7688    
    580000   399.99108     -1.3203313e+08  2025.1668      1431.783     
    581000   400.06625     -1.3203389e+08  2016.7427      1431.7973    
    582000   399.91806     -1.3203287e+08  2019.3734      1431.8115    
    583000   399.98689     -1.3203324e+08  2004.1425      1431.8257    
    584000   399.94796     -1.3203304e+08  2015.6957      1431.84      
    585000   399.98765     -1.3203354e+08  2009.7994      1431.8542    
    586000   399.94077     -1.3203319e+08  2014.1631      1431.8685    
    587000   399.89421     -1.3203352e+08  1999.3158      1431.8827    
    588000   399.94792     -1.3203363e+08  2004.916       1431.897     
    589000   400.0192      -1.3203342e+08  1995.2396      1431.9112    
    590000   399.93928     -1.3203306e+08  1996.0414      1431.9254    
    591000   399.95257     -1.3203299e+08  1989.17        1431.9397    
    592000   400.02594     -1.3203313e+08  1994.3198      1431.9539    
    593000   399.94408     -1.3203303e+08  1977.0836      1431.9682    
    594000   399.94895     -1.3203291e+08  1978.9934      1431.9824    
    595000   399.99691     -1.3203277e+08  1983.5712      1431.9967    
    596000   399.9738      -1.3203276e+08  1987.7901      1432.0109    
    597000   399.93432     -1.3203254e+08  1984.0025      1432.0251    
    598000   399.95701     -1.3203275e+08  1965.1774      1432.0394    
    599000   399.96059     -1.3203259e+08  1961.2938      1432.0536    
    600000   399.92401     -1.3203257e+08  1952.2402      1432.0679    
    601000   399.97192     -1.3203241e+08  1953.79        1432.0821    
    602000   399.95635     -1.3203253e+08  1957.4476      1432.0964    
    603000   399.97822     -1.3203279e+08  1965.6759      1432.1106    
    604000   400.04436     -1.3203333e+08  1954.2179      1432.1248    
    605000   400.055       -1.320329e+08   1948.7125      1432.1391    
    606000   400.07695     -1.3203256e+08  1950.2637      1432.1533    
    607000   400.04738     -1.3203215e+08  1949.4018      1432.1676    
    608000   399.96537     -1.3203228e+08  1943.789       1432.1818    
    609000   400.02749     -1.3203242e+08  1946.8194      1432.1961    
    610000   400.07107     -1.3203207e+08  1946.2126      1432.2103    
    611000   400.09873     -1.3203228e+08  1939.2655      1432.2245    
    612000   400.02436     -1.3203211e+08  1935.6943      1432.2388    
    613000   400.04256     -1.3203258e+08  1933.0201      1432.253     
    614000   399.96394     -1.3203216e+08  1924.403       1432.2673    
    615000   400.01313     -1.320326e+08   1925.0952      1432.2815    
    616000   400.06544     -1.3203239e+08  1924.4169      1432.2957    
    617000   400.03856     -1.3203261e+08  1922.9919      1432.31      
    618000   399.95348     -1.3203221e+08  1928.7823      1432.3242    
    619000   400.00438     -1.3203196e+08  1912.4809      1432.3385    
    620000   400.03476     -1.3203187e+08  1909.7183      1432.3527    
    621000   399.9663      -1.3203174e+08  1903.4315      1432.367     
    622000   400.04509     -1.3203256e+08  1906.6305      1432.3812    
    623000   400.0557      -1.3203215e+08  1914.1047      1432.3954    
    624000   399.97257     -1.3203197e+08  1914.6226      1432.4097    
    625000   400.05871     -1.3203179e+08  1901.2997      1432.4239    
    626000   400.00137     -1.3203201e+08  1895.276       1432.4382    
    627000   400.03532     -1.3203157e+08  1890.0355      1432.4524    
    628000   400.02163     -1.3203226e+08  1887.067       1432.4667    
    629000   400.01946     -1.3203196e+08  1897.0025      1432.4809    
    630000   399.93252     -1.3203172e+08  1890.2881      1432.4951    
    631000   399.99636     -1.32032e+08    1891.9576      1432.5094    
    632000   399.98646     -1.320321e+08   1886.0275      1432.5236    
    633000   400.00781     -1.3203244e+08  1875.4838      1432.5379    
    634000   400.01955     -1.3203197e+08  1885.4929      1432.5521    
    635000   400.01167     -1.3203156e+08  1876.4441      1432.5664    
    636000   400.10665     -1.3203205e+08  1878.8802      1432.5806    
    637000   400.00621     -1.3203151e+08  1866.3024      1432.5948    
    638000   400.00775     -1.3203174e+08  1878.7161      1432.6091    
    639000   399.98216     -1.3203235e+08  1875.1667      1432.6233    
    640000   399.9779      -1.3203225e+08  1874.5396      1432.6376    
    641000   399.91525     -1.3203182e+08  1857.398       1432.6518    
    642000   400.01459     -1.3203179e+08  1855.4425      1432.666     
    643000   399.93488     -1.3203126e+08  1845.6069      1432.6803    
    644000   400.04327     -1.3203157e+08  1850.507       1432.6945    
    645000   400.00942     -1.3203153e+08  1856.9662      1432.7088    
    646000   400.06289     -1.3203162e+08  1849.8149      1432.723     
    647000   400.03333     -1.3203169e+08  1842.5238      1432.7373    
    648000   400.00151     -1.3203107e+08  1834.5378      1432.7515    
    649000   399.98938     -1.3203111e+08  1837.0425      1432.7657    
    650000   399.89173     -1.3203091e+08  1834.4081      1432.78      
    651000   400.02762     -1.3203163e+08  1823.9546      1432.7942    
    652000   399.94395     -1.3203123e+08  1822.4033      1432.8085    
    653000   399.99743     -1.3203157e+08  1826.9603      1432.8227    
    654000   399.95689     -1.3203113e+08  1820.4156      1432.837     
    655000   400.02744     -1.3203134e+08  1824.4753      1432.8512    
    656000   399.96536     -1.3203128e+08  1812.4888      1432.8654    
    657000   400.01753     -1.320318e+08   1813.0469      1432.8797    
    658000   399.96361     -1.3203134e+08  1811.2057      1432.8939    
    659000   399.98923     -1.3203168e+08  1816.1719      1432.9082    
    660000   399.94275     -1.320315e+08   1816.969       1432.9224    
    661000   399.96251     -1.3203183e+08  1817.6326      1432.9367    
    662000   399.94377     -1.3203171e+08  1804.7533      1432.9509    
    663000   399.89152     -1.3203144e+08  1795.1034      1432.9651    
    664000   399.95983     -1.3203137e+08  1788.9899      1432.9794    
    665000   399.98518     -1.3203128e+08  1788.3575      1432.9936    
    666000   399.97422     -1.3203106e+08  1798.418       1433.0079    
    667000   399.96845     -1.32031e+08    1799.0182      1433.0221    
    668000   399.98544     -1.320313e+08   1794.8301      1433.0363    
    669000   400.01737     -1.320308e+08   1785.6152      1433.0506    
    670000   399.97606     -1.3203074e+08  1788.6925      1433.0648    
    671000   399.9676      -1.3203096e+08  1773.0826      1433.0791    
    672000   400.00945     -1.320309e+08   1780.403       1433.0933    
    673000   399.93552     -1.3203042e+08  1778.0906      1433.1076    
    674000   400.10942     -1.3203114e+08  1775.2553      1433.1218    
    675000   400.00926     -1.3203086e+08  1766.7966      1433.136     
    676000   400.03694     -1.3203103e+08  1760.8395      1433.1503    
    677000   400.01325     -1.320307e+08   1756.2541      1433.1645    
    678000   400.00457     -1.3203072e+08  1766.7905      1433.1788    
    679000   400.06136     -1.3203078e+08  1767.618       1433.193     
    680000   400.07912     -1.3203076e+08  1762.0772      1433.2073    
    681000   400.11117     -1.3203085e+08  1747.5765      1433.2215    
    682000   400.05021     -1.3203097e+08  1744.6933      1433.2357    
    683000   399.92002     -1.3203044e+08  1747.0333      1433.25      
    684000   400.00013     -1.3203051e+08  1736.3596      1433.2642    
    685000   400.01074     -1.3203093e+08  1734.7982      1433.2785    
    686000   400.03346     -1.3203074e+08  1726.4483      1433.2927    
    687000   400.0281      -1.3203058e+08  1736.1146      1433.307     
    688000   399.98615     -1.3203084e+08  1726.4188      1433.3212    
    689000   400.05549     -1.3203062e+08  1747.5314      1433.3354    
    690000   400.01288     -1.3203061e+08  1744.5022      1433.3497    
    691000   400.05341     -1.320305e+08   1739.7722      1433.3639    
    692000   400.04618     -1.3203053e+08  1718.2754      1433.3782    
    693000   399.996       -1.3203111e+08  1709.4141      1433.3924    
    694000   399.96443     -1.3203098e+08  1703.4091      1433.4067    
    695000   400.01242     -1.3203077e+08  1712.4914      1433.4209    
    696000   399.95886     -1.3203055e+08  1705.7454      1433.4351    
    697000   399.97927     -1.3203076e+08  1703.8214      1433.4494    
    698000   399.96115     -1.3203054e+08  1706.9982      1433.4636    
    699000   399.83656     -1.3202986e+08  1698.7641      1433.4779    
    700000   400.00411     -1.3203048e+08  1695.647       1433.4921    
    701000   399.99367     -1.3203028e+08  1696.4502      1433.5063    
    702000   399.96637     -1.320303e+08   1698.8828      1433.5206    
    703000   400.04879     -1.3203043e+08  1702.2399      1433.5348    
    704000   400.02041     -1.3203048e+08  1699.9661      1433.5491    
    705000   399.96443     -1.3203026e+08  1684.8286      1433.5633    
    706000   399.94627     -1.320305e+08   1686.2208      1433.5776    
    707000   400.02809     -1.3203041e+08  1677.9237      1433.5918    
    708000   400.01145     -1.3203022e+08  1673.9456      1433.606     
    709000   400.02424     -1.3203001e+08  1669.6506      1433.6203    
    710000   400.03252     -1.3203018e+08  1674.9453      1433.6345    
    711000   400.04943     -1.320303e+08   1669.4387      1433.6488    
    712000   400.00348     -1.3202976e+08  1668.5871      1433.663     
    713000   400.05096     -1.3202983e+08  1660.4289      1433.6773    
    714000   400.02943     -1.320301e+08   1662.1527      1433.6915    
    715000   400.00938     -1.320297e+08   1661.4686      1433.7057    
    716000   400.10233     -1.3202988e+08  1658.631       1433.72      
    717000   400.09594     -1.3202968e+08  1654.8906      1433.7342    
    718000   399.93734     -1.3202914e+08  1649.7391      1433.7485    
    719000   400.03502     -1.3202952e+08  1643.6042      1433.7627    
    720000   400.05748     -1.3202951e+08  1651.7015      1433.777     
    721000   400.10813     -1.3202957e+08  1644.9964      1433.7912    
    722000   400.02432     -1.3202975e+08  1646.5902      1433.8054    
    723000   400.00432     -1.3202968e+08  1640.7658      1433.8197    
    724000   399.97963     -1.3202972e+08  1639.3941      1433.8339    
    725000   400.01457     -1.3202953e+08  1628.0005      1433.8482    
    726000   400.10664     -1.3202963e+08  1636.6933      1433.8624    
    727000   400.06312     -1.3202949e+08  1618.5324      1433.8766    
    728000   400.01624     -1.3202938e+08  1618.3307      1433.8909    
    729000   400.04637     -1.3202998e+08  1618.4282      1433.9051    
    730000   399.98406     -1.3202986e+08  1622.9977      1433.9194    
    731000   399.97206     -1.3202951e+08  1627.3495      1433.9336    
    732000   399.95106     -1.3202969e+08  1620.698       1433.9479    
    733000   399.9473      -1.3202936e+08  1617.3306      1433.9621    
    734000   399.97296     -1.3202926e+08  1609.7295      1433.9763    
    735000   399.99672     -1.3202926e+08  1613.497       1433.9906    
    736000   399.98416     -1.3202903e+08  1610.5985      1434.0048    
    737000   400.01359     -1.3202922e+08  1598.7909      1434.0191    
    738000   400.0814      -1.320293e+08   1602.5343      1434.0333    
    739000   399.93798     -1.3202883e+08  1594.2826      1434.0476    
    740000   400.08383     -1.320292e+08   1586.8083      1434.0618    
    741000   399.99789     -1.320288e+08   1593.0198      1434.076     
    742000   399.96366     -1.3202886e+08  1582.4246      1434.0903    
    743000   400.07538     -1.3202922e+08  1587.9878      1434.1045    
    744000   399.99953     -1.3202931e+08  1582.9655      1434.1188    
    745000   400.04555     -1.3202963e+08  1583.5673      1434.133     
    746000   400.00868     -1.3202944e+08  1583.0784      1434.1473    
    747000   400.00135     -1.3202935e+08  1578.5071      1434.1615    
    748000   399.95193     -1.3202929e+08  1569.6721      1434.1757    
    749000   400.03037     -1.3202902e+08  1567.7301      1434.19      
    750000   399.96535     -1.3202897e+08  1562.6256      1434.2042    
    751000   399.96226     -1.3202868e+08  1565.4995      1434.2185    
    752000   400.06215     -1.3202897e+08  1554.9154      1434.2327    
    753000   400.05315     -1.3202908e+08  1549.1977      1434.2469    
    754000   399.97897     -1.3202913e+08  1543.9811      1434.2612    
    755000   399.95816     -1.3202921e+08  1540.3694      1434.2754    
    756000   399.9348      -1.3202879e+08  1552.8985      1434.2897    
    757000   399.95016     -1.32029e+08    1556.0496      1434.3039    
    758000   400.04719     -1.3202896e+08  1544.1196      1434.3182    
    759000   400.05616     -1.3202845e+08  1543.6376      1434.3324    
    760000   400.03721     -1.3202893e+08  1536.3889      1434.3466    
    761000   400.01494     -1.320287e+08   1529.4638      1434.3609    
    762000   399.97904     -1.3202877e+08  1543.9246      1434.3751    
    763000   399.98995     -1.3202871e+08  1547.1681      1434.3894    
    764000   400.0962      -1.3202856e+08  1546.354       1434.4036    
    765000   400.10129     -1.3202887e+08  1525.4402      1434.4179    
    766000   400.03629     -1.3202885e+08  1511.1422      1434.4321    
    767000   400.01999     -1.320286e+08   1512.7586      1434.4463    
    768000   400.06473     -1.320291e+08   1515.8066      1434.4606    
    769000   399.97764     -1.3202854e+08  1523.4501      1434.4748    
    770000   399.97396     -1.320286e+08   1519.6553      1434.4891    
    771000   399.97955     -1.3202867e+08  1521.4066      1434.5033    
    772000   399.93756     -1.3202837e+08  1516.6876      1434.5176    
    773000   400.08229     -1.3202846e+08  1510.7624      1434.5318    
    774000   400.05803     -1.3202851e+08  1501.3714      1434.546     
    775000   400.04466     -1.3202887e+08  1495.1424      1434.5603    
    776000   399.97931     -1.320281e+08   1502.1774      1434.5745    
    777000   399.95639     -1.3202818e+08  1502.5798      1434.5888    
    778000   399.98757     -1.320282e+08   1495.7788      1434.603     
    779000   399.9772      -1.3202858e+08  1497.2324      1434.6172    
    780000   399.98368     -1.3202851e+08  1491.0289      1434.6315    
    781000   400.00529     -1.3202877e+08  1479.8406      1434.6457    
    782000   399.96562     -1.3202835e+08  1479.5191      1434.66      
    783000   400.05516     -1.3202851e+08  1471.4409      1434.6742    
    784000   400.07794     -1.3202837e+08  1468.0746      1434.6885    
    785000   400.00947     -1.3202819e+08  1471.6246      1434.7027    
    786000   400.07124     -1.3202847e+08  1465.0868      1434.7169    
    787000   400.05778     -1.3202859e+08  1467.7819      1434.7312    
    788000   400.01719     -1.3202859e+08  1474.2822      1434.7454    
    789000   400.00295     -1.3202826e+08  1471.2075      1434.7597    
    790000   400.02201     -1.3202821e+08  1471.4812      1434.7739    
    791000   400.02171     -1.3202776e+08  1458.8177      1434.7882    
    792000   400.06663     -1.3202801e+08  1460.5038      1434.8024    
    793000   399.98713     -1.3202847e+08  1450.0067      1434.8166    
    794000   399.93361     -1.3202812e+08  1448.6485      1434.8309    
    795000   399.98614     -1.3202804e+08  1447.4465      1434.8451    
    796000   400.02505     -1.3202822e+08  1445.2211      1434.8594    
    797000   399.92527     -1.3202762e+08  1447.573       1434.8736    
    798000   399.98861     -1.3202806e+08  1439.4219      1434.8879    
    799000   400.05444     -1.3202827e+08  1443.8184      1434.9021    
    800000   400.03677     -1.3202808e+08  1439.2843      1434.9163    
    801000   399.98904     -1.3202809e+08  1431.6842      1434.9306    
    802000   399.84067     -1.3202813e+08  1427.2058      1434.9448    
    803000   399.88515     -1.3202788e+08  1421.8047      1434.9591    
    804000   399.94152     -1.320277e+08   1417.7249      1434.9733    
    805000   399.93224     -1.3202753e+08  1422.8971      1434.9876    
    806000   399.94985     -1.3202768e+08  1425.216       1435.0018    
    807000   400.02423     -1.3202781e+08  1428.9773      1435.016     
    808000   400.05849     -1.3202787e+08  1418.737       1435.0303    
    809000   399.94266     -1.3202751e+08  1419.9465      1435.0445    
    810000   400.01696     -1.320278e+08   1419.3118      1435.0588    
    811000   399.96733     -1.3202768e+08  1411.9156      1435.073     
    812000   399.90407     -1.3202754e+08  1412.9466      1435.0872    
    813000   400.04108     -1.3202784e+08  1407.3579      1435.1015    
    814000   399.9192      -1.3202722e+08  1406.2045      1435.1157    
    815000   399.95196     -1.3202765e+08  1392.6535      1435.13      
    816000   399.9753      -1.3202769e+08  1387.3998      1435.1442    
    817000   399.99849     -1.3202731e+08  1382.1079      1435.1585    
    818000   399.95924     -1.3202717e+08  1387.4829      1435.1727    
    819000   399.95163     -1.3202708e+08  1387.812       1435.1869    
    820000   399.96813     -1.3202738e+08  1388.8369      1435.2012    
    821000   399.94544     -1.3202712e+08  1390.4175      1435.2154    
    822000   400.05057     -1.3202733e+08  1386.8837      1435.2297    
    823000   400.05384     -1.3202701e+08  1382.1191      1435.2439    
    824000   399.93929     -1.3202705e+08  1373.3368      1435.2582    
    825000   399.97779     -1.3202705e+08  1371.3469      1435.2724    
    826000   400.00918     -1.3202723e+08  1382.4277      1435.2866    
    827000   399.93174     -1.3202672e+08  1373.8601      1435.3009    
    828000   399.98784     -1.3202703e+08  1363.1276      1435.3151    
    829000   400.00904     -1.3202689e+08  1357.5309      1435.3294    
    830000   399.99681     -1.3202681e+08  1349.7015      1435.3436    
    831000   400.11641     -1.3202699e+08  1351.2484      1435.3579    
    832000   400.00844     -1.3202702e+08  1348.8795      1435.3721    
    833000   400.13413     -1.320276e+08   1355.1063      1435.3863    
    834000   399.92322     -1.3202689e+08  1342.5597      1435.4006    
    835000   400.03766     -1.3202751e+08  1341.5224      1435.4148    
    836000   400.00019     -1.3202674e+08  1340.0471      1435.4291    
    837000   400.01894     -1.3202674e+08  1337.989       1435.4433    
    838000   399.98793     -1.3202619e+08  1331.0233      1435.4575    
    839000   400.1165      -1.3202666e+08  1340.0831      1435.4718    
    840000   400.05628     -1.3202629e+08  1335.3532      1435.486     
    841000   400.14954     -1.3202634e+08  1346.956       1435.5003    
    842000   400.08001     -1.3202621e+08  1330.5435      1435.5145    
    843000   400.06806     -1.3202617e+08  1319.4242      1435.5288    
    844000   400.09765     -1.3202667e+08  1301.3669      1435.543     
    845000   399.95001     -1.320261e+08   1307.007       1435.5572    
    846000   400.07881     -1.3202677e+08  1317.2534      1435.5715    
    847000   400.02706     -1.3202653e+08  1308.8872      1435.5857    
    848000   400.06271     -1.3202611e+08  1316.8822      1435.6       
    849000   400.06368     -1.3202628e+08  1302.7849      1435.6142    
    850000   400.06004     -1.3202632e+08  1304.6536      1435.6285    
    851000   400.00394     -1.320263e+08   1304.9008      1435.6427    
    852000   400.01756     -1.320262e+08   1297.7966      1435.6569    
    853000   400.0936      -1.3202663e+08  1294.8617      1435.6712    
    854000   400.02877     -1.3202651e+08  1294.4161      1435.6854    
    855000   399.98665     -1.320265e+08   1294.8439      1435.6997    
    856000   400.0002      -1.320265e+08   1295.1351      1435.7139    
    857000   399.93149     -1.3202636e+08  1293.3854      1435.7282    
    858000   400.02658     -1.3202673e+08  1290.4701      1435.7424    
    859000   400.03278     -1.3202629e+08  1291.1279      1435.7566    
    860000   400.05358     -1.3202607e+08  1288.9962      1435.7709    
    861000   399.99031     -1.3202591e+08  1286.2634      1435.7851    
    862000   399.9702      -1.3202604e+08  1278.797       1435.7994    
    863000   399.99048     -1.3202633e+08  1269.786       1435.8136    
    864000   399.98308     -1.320261e+08   1269.1774      1435.8278    
    865000   399.98398     -1.3202598e+08  1278.2477      1435.8421    
    866000   399.95661     -1.3202605e+08  1270.0154      1435.8563    
    867000   400.03854     -1.3202609e+08  1270.5309      1435.8706    
    868000   400.05183     -1.320261e+08   1258.8148      1435.8848    
    869000   399.95199     -1.3202588e+08  1255.4953      1435.8991    
    870000   400.03398     -1.3202604e+08  1250.7581      1435.9133    
    871000   399.94578     -1.3202616e+08  1239.2992      1435.9275    
    872000   400.02449     -1.320263e+08   1246.7607      1435.9418    
    873000   399.99341     -1.3202594e+08  1245.722       1435.956     
    874000   399.98618     -1.3202582e+08  1244.2007      1435.9703    
    875000   400.02638     -1.3202568e+08  1242.6935      1435.9845    
    876000   399.87968     -1.3202553e+08  1236.8909      1435.9988    
    877000   400.04435     -1.3202599e+08  1231.0858      1436.013     
    878000   400.01865     -1.3202563e+08  1223.5431      1436.0272    
    879000   400.10379     -1.3202598e+08  1231.515       1436.0415    
    880000   399.99133     -1.320254e+08   1232.8952      1436.0557    
    881000   400.05146     -1.3202533e+08  1233.8366      1436.07      
    882000   400.15755     -1.3202549e+08  1223.5054      1436.0842    
    883000   400.07078     -1.3202505e+08  1218.8432      1436.0985    
    884000   400.01845     -1.3202503e+08  1208.2185      1436.1127    
    885000   400.06792     -1.3202553e+08  1204.9495      1436.1269    
    886000   400.02344     -1.320253e+08   1207.5102      1436.1412    
    887000   400.04923     -1.3202516e+08  1205.4946      1436.1554    
    888000   400.06469     -1.3202452e+08  1203.1859      1436.1697    
    889000   400.07202     -1.3202473e+08  1199.0736      1436.1839    
    890000   400.0674      -1.32025e+08    1200.9345      1436.1982    
    891000   399.98562     -1.3202498e+08  1199.7432      1436.2124    
    892000   399.97426     -1.3202513e+08  1205.0071      1436.2266    
    893000   400.03414     -1.3202533e+08  1205.0975      1436.2409    
    894000   400.06793     -1.3202512e+08  1209.6928      1436.2551    
    895000   400.04413     -1.3202497e+08  1189.4196      1436.2694    
    896000   400.07277     -1.3202478e+08  1176.7346      1436.2836    
    897000   399.99729     -1.3202491e+08  1173.6614      1436.2978    
    898000   399.96742     -1.320249e+08   1174.0131      1436.3121    
    899000   399.99133     -1.3202468e+08  1185.6065      1436.3263    
    900000   400.02083     -1.3202494e+08  1186.9121      1436.3406    
    901000   399.95215     -1.3202498e+08  1168.5526      1436.3548    
    902000   399.97861     -1.320249e+08   1159.7726      1436.3691    
    903000   400.01853     -1.3202486e+08  1155.3429      1436.3833    
    904000   400.02526     -1.3202493e+08  1165.805       1436.3975    
    905000   399.95629     -1.320247e+08   1163.6024      1436.4118    
    906000   399.89399     -1.3202501e+08  1156.2693      1436.426     
    907000   400.00644     -1.3202515e+08  1152.6602      1436.4403    
    908000   399.95431     -1.3202533e+08  1149.2333      1436.4545    
    909000   399.943       -1.3202501e+08  1149.4093      1436.4688    
    910000   399.86114     -1.3202491e+08  1142.2138      1436.483     
    911000   399.8995      -1.3202484e+08  1149.3534      1436.4972    
    912000   399.97586     -1.3202481e+08  1148.1298      1436.5115    
    913000   399.98777     -1.320248e+08   1145.9854      1436.5257    
    914000   399.9882      -1.3202474e+08  1142.1547      1436.54      
    915000   400.01277     -1.3202446e+08  1135.2373      1436.5542    
    916000   400.00678     -1.3202454e+08  1131.458       1436.5685    
    917000   399.98246     -1.3202465e+08  1125.1808      1436.5827    
    918000   400.05286     -1.3202447e+08  1126.7466      1436.5969    
    919000   400.06439     -1.3202403e+08  1127.7022      1436.6112    
    920000   400.07051     -1.3202407e+08  1127.0709      1436.6254    
    921000   400.06279     -1.320242e+08   1115.6127      1436.6397    
    922000   400.02265     -1.3202435e+08  1112.7083      1436.6539    
    923000   400.0503      -1.3202425e+08  1120.6486      1436.6681    
    924000   400.10163     -1.3202442e+08  1123.0621      1436.6824    
    925000   400.07854     -1.3202406e+08  1115.901       1436.6966    
    926000   400.19227     -1.320243e+08   1099.3695      1436.7109    
    927000   400.00923     -1.3202414e+08  1094.6786      1436.7251    
    928000   399.92979     -1.3202423e+08  1089.4723      1436.7394    
    929000   400.05237     -1.3202449e+08  1104.3119      1436.7536    
    930000   399.98244     -1.3202405e+08  1103.2475      1436.7678    
    931000   399.96333     -1.3202418e+08  1097.5921      1436.7821    
    932000   400.00496     -1.3202446e+08  1087.6544      1436.7963    
    933000   400.01722     -1.3202405e+08  1088.2793      1436.8106    
    934000   399.97652     -1.320241e+08   1082.9845      1436.8248    
    935000   399.98076     -1.320243e+08   1070.6394      1436.8391    
    936000   399.98908     -1.3202408e+08  1080.8644      1436.8533    
    937000   400.09759     -1.3202417e+08  1082.7946      1436.8675    
    938000   400.01417     -1.3202351e+08  1086.5861      1436.8818    
    939000   400.05973     -1.3202346e+08  1074.4349      1436.896     
    940000   400.04115     -1.3202333e+08  1068.9477      1436.9103    
    941000   399.96666     -1.3202353e+08  1061.5453      1436.9245    
    942000   400.02252     -1.3202381e+08  1057.4668      1436.9388    
    943000   400.05686     -1.3202392e+08  1054.3215      1436.953     
    944000   399.95123     -1.3202361e+08  1049.9836      1436.9672    
    945000   399.98553     -1.3202363e+08  1050.6754      1436.9815    
    946000   400.0047      -1.3202425e+08  1047.839       1436.9957    
    947000   399.9513      -1.3202346e+08  1052.8105      1437.01      
    948000   400.04056     -1.320239e+08   1044.2442      1437.0242    
    949000   399.9167      -1.3202329e+08  1037.4974      1437.0384    
    950000   399.96057     -1.3202361e+08  1035.0968      1437.0527    
    951000   399.94957     -1.3202402e+08  1043.4693      1437.0669    
    952000   399.92975     -1.3202363e+08  1041.4061      1437.0812    
    953000   399.93455     -1.320234e+08   1042.7774      1437.0954    
    954000   399.9547      -1.3202332e+08  1036.5092      1437.1097    
    955000   400.00463     -1.3202357e+08  1027.1826      1437.1239    
    956000   399.85229     -1.3202301e+08  1028.2956      1437.1381    
    957000   399.91802     -1.3202302e+08  1020.6445      1437.1524    
    958000   399.94992     -1.3202359e+08  1018.0891      1437.1666    
    959000   399.89616     -1.3202319e+08  1010.3891      1437.1809    
    960000   399.95912     -1.320231e+08   1017.1346      1437.1951    
    961000   399.90731     -1.3202292e+08  1019.425       1437.2094    
    962000   399.98106     -1.3202306e+08  1018.7948      1437.2236    
    963000   399.95906     -1.3202306e+08  1015.853       1437.2378    
    964000   400.02327     -1.3202303e+08  1010.804       1437.2521    
    965000   399.97741     -1.3202302e+08  1004.6832      1437.2663    
    966000   400.01095     -1.3202301e+08  1005.6422      1437.2806    
    967000   399.95954     -1.320225e+08   998.7243       1437.2948    
    968000   399.98777     -1.3202246e+08  992.63479      1437.3091    
    969000   400.01031     -1.320224e+08   992.81637      1437.3233    
    970000   400.02339     -1.3202247e+08  988.59654      1437.3375    
    971000   400.00186     -1.3202266e+08  997.28486      1437.3518    
    972000   400.03998     -1.3202243e+08  1005.5215      1437.366     
    973000   400.01906     -1.3202221e+08  1003.3108      1437.3803    
    974000   399.9947      -1.3202242e+08  987.9776       1437.3945    
    975000   399.98365     -1.3202237e+08  972.93068      1437.4087    
    976000   399.97982     -1.3202231e+08  970.50103      1437.423     
    977000   399.98844     -1.3202251e+08  973.45192      1437.4372    
    978000   400.05197     -1.3202257e+08  982.74197      1437.4515    
    979000   399.95946     -1.3202236e+08  972.76537      1437.4657    
    980000   399.93087     -1.3202218e+08  962.62728      1437.48      
    981000   400.02487     -1.3202271e+08  954.83604      1437.4942    
    982000   399.99223     -1.3202262e+08  958.95241      1437.5084    
    983000   399.93478     -1.3202239e+08  963.11446      1437.5227    
    984000   399.98153     -1.3202235e+08  965.86752      1437.5369    
    985000   399.9013      -1.3202238e+08  950.68445      1437.5512    
    986000   399.90718     -1.3202224e+08  945.33057      1437.5654    
    987000   399.93365     -1.3202212e+08  945.30532      1437.5797    
    988000   400.01832     -1.3202246e+08  950.68479      1437.5939    
    989000   399.94639     -1.320223e+08   955.89449      1437.6081    
    990000   399.98691     -1.3202248e+08  949.11964      1437.6224    
    991000   399.99173     -1.3202239e+08  945.48538      1437.6366    
    992000   399.97263     -1.3202229e+08  939.0361       1437.6509    
    993000   400.02946     -1.3202245e+08  936.2198       1437.6651    
    994000   399.97591     -1.3202203e+08  930.09274      1437.6794    
    995000   400.03397     -1.3202225e+08  918.86164      1437.6936    
    996000   399.99011     -1.320225e+08   916.53951      1437.7078    
    997000   399.96907     -1.3202212e+08  925.04259      1437.7221    
    998000   399.98722     -1.3202176e+08  920.78793      1437.7363    
    999000   400.05412     -1.3202213e+08  918.23091      1437.7506    
   1000000   399.95892     -1.320221e+08   908.47089      1437.7648    
   1001000   399.96632     -1.3202187e+08  900.77459      1437.7791    
   1002000   399.94911     -1.3202182e+08  904.26698      1437.7933    
   1003000   399.95443     -1.3202174e+08  907.82431      1437.8075    
   1004000   400.03551     -1.3202201e+08  913.50428      1437.8218    
   1005000   400.02888     -1.3202184e+08  911.01173      1437.836     
   1006000   399.99668     -1.320218e+08   900.96945      1437.8503    
   1007000   399.95476     -1.3202174e+08  900.82588      1437.8645    
   1008000   400.00229     -1.3202129e+08  895.64771      1437.8787    
   1009000   399.95879     -1.3202125e+08  896.49554      1437.893     
   1010000   399.97105     -1.3202104e+08  890.21014      1437.9072    
   1011000   400.0026      -1.3202131e+08  897.06385      1437.9215    
   1012000   399.94362     -1.3202127e+08  884.04662      1437.9357    
   1013000   399.99288     -1.3202143e+08  887.42966      1437.95      
   1014000   399.91987     -1.3202099e+08  877.01555      1437.9642    
   1015000   399.93458     -1.3202103e+08  870.47         1437.9784    
   1016000   399.93724     -1.3202135e+08  865.5116       1437.9927    
   1017000   399.92929     -1.3202153e+08  866.70893      1438.0069    
   1018000   399.9352      -1.3202156e+08  869.31735      1438.0212    
   1019000   400.00783     -1.3202161e+08  862.45745      1438.0354    
   1020000   399.97088     -1.3202086e+08  864.98808      1438.0497    
   1021000   400.01611     -1.3202128e+08  861.05912      1438.0639    
   1022000   400.02904     -1.3202105e+08  855.01245      1438.0781    
   1023000   399.90896     -1.3202093e+08  849.72088      1438.0924    
   1024000   399.97797     -1.3202114e+08  859.64767      1438.1066    
   1025000   400.06419     -1.3202121e+08  858.74335      1438.1209    
   1026000   400.05071     -1.3202111e+08  854.90467      1438.1351    
   1027000   400.02882     -1.3202123e+08  853.2426       1438.1494    
   1028000   400.02365     -1.3202107e+08  834.48194      1438.1636    
   1029000   399.97025     -1.3202116e+08  837.51331      1438.1778    
   1030000   399.97829     -1.3202083e+08  846.73453      1438.1921    
   1031000   399.96855     -1.3202112e+08  842.55529      1438.2063    
   1032000   399.99078     -1.3202131e+08  832.84531      1438.2206    
   1033000   399.98857     -1.3202105e+08  826.70561      1438.2348    
   1034000   399.92596     -1.3202055e+08  824.7361       1438.249     
   1035000   400.04087     -1.3202067e+08  821.78593      1438.2633    
   1036000   400.01826     -1.3202043e+08  829.10751      1438.2775    
[...]
   3858000   399.99755     -1.3181336e+08 -5084.074       1478.4694    
   3859000   399.95232     -1.3181325e+08 -5095.8117      1478.4837    
   3860000   399.9397      -1.3181308e+08 -5095.0186      1478.4979    
   3861000   400.02415     -1.3181281e+08 -5098.9836      1478.5122    
   3862000   399.97066     -1.3181243e+08 -5094.8346      1478.5264    
   3863000   399.98046     -1.3181243e+08 -5094.7142      1478.5406    
   3864000   399.98389     -1.3181269e+08 -5094.8925      1478.5549    
   3865000   400.04628     -1.3181258e+08 -5088.7133      1478.5691    
   3866000   399.96048     -1.3181264e+08 -5105.4692      1478.5834    
   3867000   399.96589     -1.3181233e+08 -5121.4203      1478.5976    
   3868000   400.01512     -1.3181204e+08 -5113.181       1478.6119    
   3869000   400.03753     -1.31812e+08   -5102.5057      1478.6261    
   3870000   399.97636     -1.3181192e+08 -5107.1683      1478.6403    
   3871000   399.89216     -1.3181153e+08 -5103.4303      1478.6546    
   3872000   399.93334     -1.3181168e+08 -5118.795       1478.6688    
   3873000   399.98707     -1.3181193e+08 -5114.0749      1478.6831    
   3874000   399.99211     -1.3181175e+08 -5116.9483      1478.6973    
   3875000   399.99723     -1.3181152e+08 -5110.7885      1478.7116    
   3876000   399.93668     -1.3181135e+08 -5116.5327      1478.7258    
   3877000   400.00003     -1.3181156e+08 -5118.2578      1478.74      
   3878000   399.95679     -1.3181142e+08 -5127.2118      1478.7543    
   3879000   399.95234     -1.3181135e+08 -5127.3585      1478.7685    
   3880000   399.98687     -1.3181119e+08 -5123.9155      1478.7828    
   3881000   399.8577      -1.3181093e+08 -5123.245       1478.797     
   3882000   400.01942     -1.3181108e+08 -5133.0593      1478.8112    
   3883000   399.94479     -1.3181072e+08 -5124.3007      1478.8255    
   3884000   399.96364     -1.3181048e+08 -5129.6536      1478.8397    
   3885000   399.94341     -1.318104e+08  -5127.5462      1478.854     
   3886000   399.95524     -1.318102e+08  -5130.9844      1478.8682    
   3887000   400.01743     -1.3181062e+08 -5130.2649      1478.8825    
   3888000   400.00906     -1.318101e+08  -5133.2022      1478.8967    
   3889000   400.00854     -1.3180998e+08 -5134.095       1478.9109    
   3890000   400.02511     -1.3181021e+08 -5141.4213      1478.9252    
   3891000   399.92991     -1.3181004e+08 -5146.0683      1478.9394    
   3892000   399.94377     -1.3181003e+08 -5148.47        1478.9537    
   3893000   399.94595     -1.3180965e+08 -5149.9314      1478.9679    
   3894000   399.9078      -1.3180946e+08 -5151.9716      1478.9822    
   3895000   400.0516      -1.3180959e+08 -5143.672       1478.9964    
   3896000   399.91654     -1.3180952e+08 -5154.3389      1479.0106    
   3897000   399.99251     -1.3180958e+08 -5159.5946      1479.0249    
   3898000   399.93786     -1.3180928e+08 -5154.9009      1479.0391    
   3899000   400.03106     -1.318089e+08  -5144.2398      1479.0534    
   3900000   399.95998     -1.3180864e+08 -5155.566       1479.0676    
   3901000   400.06012     -1.3180891e+08 -5160.8496      1479.0819    
   3902000   400.08554     -1.3180849e+08 -5166.0474      1479.0961    
   3903000   400.0157      -1.3180855e+08 -5158.5043      1479.1103    
   3904000   400.06873     -1.3180886e+08 -5160.2032      1479.1246    
   3905000   400.06664     -1.3180866e+08 -5157.3039      1479.1388    
   3906000   400.03729     -1.3180831e+08 -5160.2278      1479.1531    
   3907000   399.98191     -1.3180814e+08 -5161.2092      1479.1673    
   3908000   399.90908     -1.3180797e+08 -5154.8104      1479.1815    
   3909000   399.96188     -1.3180811e+08 -5150.5636      1479.1958    
   3910000   400.02884     -1.3180803e+08 -5171.7282      1479.21      
   3911000   400.0339      -1.3180801e+08 -5181.1898      1479.2243    
   3912000   399.9381      -1.3180744e+08 -5191.0187      1479.2385    
   3913000   400.03254     -1.3180795e+08 -5185.267       1479.2528    
   3914000   399.96148     -1.3180763e+08 -5187.0106      1479.267     
   3915000   399.93581     -1.3180688e+08 -5177.9798      1479.2812    
   3916000   399.98365     -1.3180726e+08 -5185.046       1479.2955    
   3917000   399.93143     -1.318066e+08  -5183.0073      1479.3097    
   3918000   400.00841     -1.3180698e+08 -5197.3332      1479.324     
   3919000   400.0334      -1.3180658e+08 -5194.5068      1479.3382    
   3920000   399.95308     -1.3180636e+08 -5202.5097      1479.3525    
   3921000   399.93881     -1.3180638e+08 -5179.6218      1479.3667    
   3922000   399.93831     -1.3180689e+08 -5185.5514      1479.3809    
   3923000   399.9706      -1.3180687e+08 -5196.0093      1479.3952    
   3924000   399.9255      -1.3180607e+08 -5208.0976      1479.4094    
   3925000   400.03306     -1.3180623e+08 -5200.8754      1479.4237    
   3926000   400.05575     -1.3180613e+08 -5198.5836      1479.4379    
   3927000   400.0168      -1.3180576e+08 -5189.8894      1479.4522    
   3928000   400.02461     -1.3180578e+08 -5195.2952      1479.4664    
   3929000   399.98494     -1.3180541e+08 -5197.9718      1479.4806    
   3930000   400.03221     -1.3180542e+08 -5201.5766      1479.4949    
   3931000   399.97762     -1.3180517e+08 -5204.5517      1479.5091    
   3932000   399.90315     -1.3180523e+08 -5201.0102      1479.5234    
   3933000   399.99761     -1.3180555e+08 -5203.7916      1479.5376    
   3934000   399.96129     -1.3180556e+08 -5207.0012      1479.5519    
   3935000   399.98533     -1.3180513e+08 -5213.5484      1479.5661    
   3936000   400.06655     -1.3180476e+08 -5214.7304      1479.5803    
   3937000   400.02119     -1.3180425e+08 -5213.2308      1479.5946    
   3938000   400.06462     -1.3180479e+08 -5213.1692      1479.6088    
   3939000   399.99625     -1.3180422e+08 -5208.9351      1479.6231    
   3940000   400.09221     -1.3180432e+08 -5210.9588      1479.6373    
   3941000   400.04066     -1.3180401e+08 -5222.1484      1479.6515    
   3942000   399.99314     -1.3180381e+08 -5219.4017      1479.6658    
   3943000   400.02303     -1.3180391e+08 -5224.1136      1479.68      
   3944000   400.04571     -1.3180406e+08 -5222.9135      1479.6943    
   3945000   399.9207      -1.3180366e+08 -5221.2748      1479.7085    
   3946000   400.03761     -1.3180377e+08 -5232.2234      1479.7228    
   3947000   400.05352     -1.3180364e+08 -5221.38        1479.737     
   3948000   400.06193     -1.3180385e+08 -5227.8693      1479.7512    
   3949000   399.99336     -1.3180329e+08 -5234.4465      1479.7655    
   3950000   400.05973     -1.3180357e+08 -5245.343       1479.7797    
   3951000   400.02331     -1.3180328e+08 -5245.0777      1479.794     
   3952000   400.03089     -1.3180314e+08 -5242.8905      1479.8082    
   3953000   399.9943      -1.3180272e+08 -5239.0146      1479.8225    
   3954000   400.03301     -1.3180253e+08 -5237.4389      1479.8367    
   3955000   400.09558     -1.3180267e+08 -5240.233       1479.8509    
   3956000   399.96875     -1.3180254e+08 -5254.1933      1479.8652    
   3957000   399.90368     -1.3180225e+08 -5256.6839      1479.8794    
   3958000   400.05426     -1.3180261e+08 -5257.488       1479.8937    
   3959000   400.02781     -1.3180216e+08 -5246.1359      1479.9079    
   3960000   399.95479     -1.3180184e+08 -5243.6984      1479.9222    
   3961000   400.03942     -1.3180197e+08 -5250.2137      1479.9364    
   3962000   400.13365     -1.3180233e+08 -5264.7491      1479.9506    
   3963000   400.06992     -1.3180181e+08 -5258.4677      1479.9649    
   3964000   400.02446     -1.3180173e+08 -5263.4807      1479.9791    
   3965000   400.02413     -1.3180156e+08 -5262.1226      1479.9934    
   3966000   399.99734     -1.3180151e+08 -5264.2661      1480.0076    
   3967000   399.94502     -1.3180143e+08 -5262.8871      1480.0218    
   3968000   399.99338     -1.3180134e+08 -5255.8618      1480.0361    
   3969000   399.95103     -1.3180107e+08 -5262.273       1480.0503    
   3970000   400.04419     -1.3180096e+08 -5265.9527      1480.0646    
   3971000   400.03202     -1.3180094e+08 -5267.0973      1480.0788    
   3972000   400.03336     -1.3180099e+08 -5265.7379      1480.0931    
   3973000   399.95689     -1.3180093e+08 -5262.6741      1480.1073    
   3974000   400.00245     -1.3180122e+08 -5268.7756      1480.1215    
   3975000   400.10042     -1.3180119e+08 -5274.482       1480.1358    
   3976000   400.01194     -1.3180064e+08 -5269.9642      1480.15      
   3977000   400.00519     -1.3180012e+08 -5274.8108      1480.1643    
   3978000   399.99015     -1.3179984e+08 -5274.9212      1480.1785    
   3979000   400.09608     -1.3180032e+08 -5282.3922      1480.1928    
   3980000   399.92276     -1.3180002e+08 -5282.8629      1480.207     
   3981000   399.91355     -1.3179983e+08 -5292.9261      1480.2212    
   3982000   399.95144     -1.3179995e+08 -5292.2265      1480.2355    
   3983000   399.98144     -1.3179941e+08 -5290.7834      1480.2497    
   3984000   399.96196     -1.3179986e+08 -5290.3856      1480.264     
   3985000   399.96819     -1.3179971e+08 -5286.7243      1480.2782    
   3986000   400.01875     -1.3179938e+08 -5276.85        1480.2925    
   3987000   399.99498     -1.3179924e+08 -5278.8135      1480.3067    
   3988000   399.99481     -1.3179913e+08 -5292.7418      1480.3209    
   3989000   399.97116     -1.3179919e+08 -5304.4767      1480.3352    
   3990000   399.95376     -1.3179911e+08 -5296.9381      1480.3494    
   3991000   399.97276     -1.3179889e+08 -5292.5019      1480.3637    
   3992000   399.98947     -1.3179888e+08 -5286.073       1480.3779    
   3993000   399.99734     -1.3179931e+08 -5298.4791      1480.3921    
   3994000   399.93063     -1.317988e+08  -5303.3089      1480.4064    
   3995000   399.87063     -1.3179847e+08 -5306.267       1480.4206    
   3996000   400.01887     -1.3179891e+08 -5306.3785      1480.4349    
   3997000   399.92855     -1.3179864e+08 -5305.2678      1480.4491    
   3998000   399.90446     -1.3179844e+08 -5313.2036      1480.4634    
   3999000   399.91094     -1.3179847e+08 -5312.3417      1480.4776    
   4000000   399.91714     -1.3179828e+08 -5304.5687      1480.4918    
   4001000   399.89052     -1.3179801e+08 -5306.1994      1480.5061    
   4002000   399.97049     -1.3179774e+08 -5313.5571      1480.5203    
   4003000   399.96097     -1.3179748e+08 -5323.0414      1480.5346    
   4004000   399.95305     -1.317974e+08  -5319.942       1480.5488    
   4005000   400.02166     -1.3179732e+08 -5321.0079      1480.5631    
   4006000   399.98634     -1.3179687e+08 -5317.9108      1480.5773    
   4007000   400.01465     -1.3179705e+08 -5327.864       1480.5915    
   4008000   400.07029     -1.3179713e+08 -5331.8697      1480.6058    
   4009000   399.85336     -1.3179673e+08 -5330.9596      1480.62      
   4010000   399.97288     -1.3179678e+08 -5329.0937      1480.6343    
   4011000   400.05758     -1.3179681e+08 -5332.8165      1480.6485    
   4012000   399.96164     -1.3179634e+08 -5334.1476      1480.6628    
   4013000   400.05528     -1.3179652e+08 -5330.5599      1480.677     
   4014000   399.98216     -1.3179633e+08 -5329.4138      1480.6912    
   4015000   399.9551      -1.3179572e+08 -5328.7479      1480.7055    
   4016000   400.06875     -1.3179625e+08 -5336.7059      1480.7197    
   4017000   399.95237     -1.3179601e+08 -5344.283       1480.734     
   4018000   399.99932     -1.3179637e+08 -5341.7336      1480.7482    
   4019000   400.02845     -1.3179624e+08 -5340.2402      1480.7625    
   4020000   400.06724     -1.3179567e+08 -5340.5058      1480.7767    
   4021000   399.96141     -1.3179506e+08 -5344.6089      1480.7909    
   4022000   400.00584     -1.317951e+08  -5353.1395      1480.8052    
   4023000   399.98122     -1.3179493e+08 -5352.1297      1480.8194    
   4024000   399.95449     -1.3179507e+08 -5337.256       1480.8337    
   4025000   399.94921     -1.3179511e+08 -5341.2971      1480.8479    
   4026000   400.01511     -1.3179542e+08 -5352.4088      1480.8621    
   4027000   399.9136      -1.3179486e+08 -5361.3498      1480.8764    
   4028000   399.92328     -1.3179492e+08 -5357.2546      1480.8906    
   4029000   399.97052     -1.3179537e+08 -5362.0548      1480.9049    
   4030000   399.84939     -1.3179441e+08 -5358.7387      1480.9191    
   4031000   400.00102     -1.3179448e+08 -5357.4191      1480.9334    
   4032000   400.03128     -1.3179471e+08 -5366.2892      1480.9476    
   4033000   399.99086     -1.3179399e+08 -5359.4913      1480.9618    
   4034000   399.94143     -1.3179379e+08 -5356.9527      1480.9761    
   4035000   399.98319     -1.3179403e+08 -5350.1025      1480.9903    
   4036000   399.98803     -1.3179433e+08 -5360.8819      1481.0046    
   4037000   400.07972     -1.3179401e+08 -5366.7079      1481.0188    
   4038000   400.008       -1.3179374e+08 -5371.4073      1481.0331    
   4039000   399.9304      -1.3179377e+08 -5369.0968      1481.0473    
   4040000   400.05729     -1.3179401e+08 -5375.7747      1481.0615    
   4041000   399.96868     -1.3179372e+08 -5370.9087      1481.0758    
   4042000   399.92427     -1.3179353e+08 -5381.794       1481.09      
   4043000   400.04266     -1.3179295e+08 -5377.0018      1481.1043    
   4044000   399.9903      -1.3179287e+08 -5382.7238      1481.1185    
   4045000   400.00481     -1.3179281e+08 -5382.0393      1481.1328    
   4046000   400.0507      -1.3179274e+08 -5380.1966      1481.147     
   4047000   399.92087     -1.3179205e+08 -5385.532       1481.1612    
   4048000   399.97722     -1.3179239e+08 -5388.4246      1481.1755    
   4049000   400.01791     -1.3179241e+08 -5387.4024      1481.1897    
   4050000   400.08248     -1.3179195e+08 -5376.58        1481.204     
   4051000   400.01526     -1.3179206e+08 -5379.9704      1481.2182    
   4052000   400.02693     -1.3179228e+08 -5389.3539      1481.2324    
   4053000   400.08712     -1.3179255e+08 -5403.2743      1481.2467    
   4054000   400.08169     -1.3179217e+08 -5404.6031      1481.2609    
   4055000   400.05356     -1.3179191e+08 -5403.7027      1481.2752    
   4056000   400.05173     -1.3179157e+08 -5395.6701      1481.2894    
   4057000   400.01339     -1.3179149e+08 -5392.5601      1481.3037    
   4058000   399.98392     -1.3179133e+08 -5398.9857      1481.3179    
   4059000   400.01731     -1.3179147e+08 -5401.0731      1481.3321    
   4060000   399.99674     -1.3179124e+08 -5422.8221      1481.3464    
   4061000   400.01295     -1.3179088e+08 -5414.288       1481.3606    
   4062000   399.91233     -1.3179071e+08 -5415.6714      1481.3749    
   4063000   400.05929     -1.3179091e+08 -5407.3061      1481.3891    
   4064000   400.05748     -1.3179061e+08 -5405.2693      1481.4034    
   4065000   400.02562     -1.3179046e+08 -5415.4841      1481.4176    
   4066000   399.99472     -1.317903e+08  -5423.3458      1481.4318    
   4067000   400.03118     -1.3179039e+08 -5416.3214      1481.4461    
   4068000   400.10135     -1.317903e+08  -5413.4056      1481.4603    
   4069000   400.06178     -1.3179013e+08 -5423.7286      1481.4746    
   4070000   400.09807     -1.3179013e+08 -5429.6705      1481.4888    
   4071000   399.96724     -1.3178945e+08 -5433.6884      1481.5031    
   4072000   400.01103     -1.3178935e+08 -5430.0342      1481.5173    
   4073000   400.07538     -1.3178988e+08 -5427.1751      1481.5315    
   4074000   400.02084     -1.3178955e+08 -5419.7233      1481.5458    
   4075000   400.07014     -1.3178985e+08 -5421.4275      1481.56      
   4076000   400.02549     -1.3178932e+08 -5424.8336      1481.5743    
   4077000   399.95467     -1.3178889e+08 -5424.6525      1481.5885    
   4078000   400.04796     -1.317892e+08  -5433.5603      1481.6027    
   4079000   400.06471     -1.3178934e+08 -5439.2749      1481.617     
   4080000   399.95716     -1.3178884e+08 -5443.3345      1481.6312    
   4081000   399.98945     -1.3178911e+08 -5446.1585      1481.6455    
   4082000   399.93771     -1.3178916e+08 -5450.0925      1481.6597    
   4083000   399.95462     -1.3178871e+08 -5444.5641      1481.674     
   4084000   400.02047     -1.3178924e+08 -5448.5567      1481.6882    
   4085000   399.93907     -1.3178843e+08 -5444.5255      1481.7024    
   4086000   400.00216     -1.3178853e+08 -5447.2315      1481.7167    
   4087000   400.0001      -1.3178811e+08 -5452.0812      1481.7309    
   4088000   399.98749     -1.3178819e+08 -5451.699       1481.7452    
   4089000   400.00046     -1.3178827e+08 -5450.2586      1481.7594    
   4090000   399.95533     -1.3178805e+08 -5461.7708      1481.7737    
   4091000   399.94443     -1.3178797e+08 -5454.2944      1481.7879    
   4092000   399.96506     -1.317874e+08  -5450.6056      1481.8021    
   4093000   400.03265     -1.3178789e+08 -5458.8492      1481.8164    
   4094000   400.02931     -1.3178712e+08 -5458.6911      1481.8306    
   4095000   399.9548      -1.317865e+08  -5446.7725      1481.8449    
   4096000   400.07821     -1.3178702e+08 -5451.2804      1481.8591    
   4097000   400.05654     -1.3178669e+08 -5453.2239      1481.8734    
   4098000   400.09542     -1.3178648e+08 -5462.5642      1481.8876    
   4099000   400.07755     -1.3178656e+08 -5469.9848      1481.9018    
   4100000   400.01043     -1.3178627e+08 -5468.5724      1481.9161    
   4101000   399.99102     -1.3178665e+08 -5459.7031      1481.9303    
   4102000   400.04265     -1.3178668e+08 -5465.7602      1481.9446    
   4103000   399.97034     -1.317866e+08  -5463.054       1481.9588    
   4104000   400.00686     -1.3178654e+08 -5475.1622      1481.973     
   4105000   399.92272     -1.3178652e+08 -5478.3527      1481.9873    
   4106000   399.94216     -1.3178592e+08 -5482.4275      1482.0015    
   4107000   400.02715     -1.3178611e+08 -5486.8878      1482.0158    
   4108000   399.95215     -1.3178552e+08 -5488.3085      1482.03      
   4109000   399.99666     -1.3178579e+08 -5486.7641      1482.0443    
   4110000   399.94554     -1.3178521e+08 -5474.8095      1482.0585    
   4111000   399.955       -1.317856e+08  -5479.6753      1482.0727    
   4112000   399.94877     -1.3178572e+08 -5484.6757      1482.087     
   4113000   400.03633     -1.3178576e+08 -5479.0201      1482.1012    
   4114000   399.98977     -1.3178526e+08 -5486.4518      1482.1155    
   4115000   400.02895     -1.3178512e+08 -5480.284       1482.1297    
   4116000   400.04659     -1.3178529e+08 -5491.5237      1482.144     
   4117000   399.98203     -1.3178469e+08 -5484.1884      1482.1582    
   4118000   400.02981     -1.3178434e+08 -5493.6794      1482.1724    
   4119000   399.97975     -1.3178456e+08 -5497.5203      1482.1867    
   4120000   399.97636     -1.317843e+08  -5504.5562      1482.2009    
   4121000   399.8972      -1.3178451e+08 -5499.344       1482.2152    
   4122000   399.99251     -1.317846e+08  -5510.9671      1482.2294    
   4123000   399.98135     -1.3178423e+08 -5496.9859      1482.2437    
   4124000   399.93406     -1.3178389e+08 -5496.9728      1482.2579    
   4125000   400.02447     -1.3178407e+08 -5506.2758      1482.2721    
   4126000   400.02436     -1.3178387e+08 -5505.4214      1482.2864    
   4127000   400.07017     -1.3178395e+08 -5503.1952      1482.3006    
   4128000   399.98347     -1.3178357e+08 -5499.3169      1482.3149    
   4129000   399.98934     -1.3178366e+08 -5500.7144      1482.3291    
   4130000   399.99927     -1.3178329e+08 -5508.3138      1482.3434    
   4131000   400.0063      -1.3178318e+08 -5524.5221      1482.3576    
   4132000   400.02815     -1.3178299e+08 -5528.2181      1482.3718    
   4133000   400.04898     -1.3178281e+08 -5529.1324      1482.3861    
   4134000   400.01028     -1.3178269e+08 -5518.4842      1482.4003    
