LAMMPS (23 Jun 2022)
KOKKOS mode is enabled (src/KOKKOS/kokkos.cpp:105)
  will use up to 4 GPU(s) per node
  using 1 OpenMP thread(s) per MPI task
package kokkos
package kokkos neigh half newton off
#LAMMPS input file

# ------------------------ INITIALIZATION ----------------------------
processors    * * *
units         metal
dimension    3
boundary    p    p    p
atom_style   charge
atom_modify map array sort 0 1

#--------------------------- LAMMPS Data File--------------------------

read_data    relaxed_step.lmp #reset_relaxed.lmp # model_4.lmp # pre_strained.lmp # High_sep_Cu_45.lmp # Cu_111_FR_45_MIN.lmp
Reading data file ...
  orthogonal box = (-314.8477 -522.43942 600) to (1109.3869 540.14923 1100)
  4 by 4 by 2 MPI processor grid
  reading atoms ...
  37948320 atoms
  reading velocities ...
  37948320 velocities
  read_data CPU = 134.239 seconds
#read_dump   dump.min_1862000.lammpstrj 1862000 x y z vx vy vz
variable  temp equal 300
variable  temp_init equal ${temp}*2
variable  temp_init equal 300*2
variable  sratex equal 5e-6 # in 1/ps (0.5 strain after 10ns)
# ------------------------ FORCE FIELDS ------------------------------
pair_style    eam/alloy
pair_coeff    * * Cu01.eam.alloy.txt Cu # Cu

#------------------------- SETTINGS ---------------------------------

#change_box        all x scale 1.015 remap units box

compute csym all centro/atom fcc
#compute peratom all pe/atom

# compute stresses
#compute       sf all stress/atom NULL

#-------------For Lorentz Forces from QEq----------------------------
# Apply forces
#variable qfx atomfile input_fx_new.txt
#variable qfy atomfile input_fy_new.txt
#variable qfz atomfile input_fz_new.txt
#variable qe atom  -(x*v_qfx+y*v_qfy+z*v_qfz)

#fix force_q1 all addforce v_qfx v_qfy v_qfz energy v_qe
#fix_modify force_q1 energy yes

#delete_atoms group exclude
#fix freez hold setforce 0 0 0
#fix_modify force_q2 energy yes
thermo 1000
thermo_style custom step temp pe press lx
thermo_modify flush yes
#min_style fire
#minimize 0.0 1e-4 100000 100000
#--------Thermal Relax---------------------------
velocity all create ${temp_init} 200 rot no dist gaussian
velocity all create 600 200 rot no dist gaussian
timestep  0.002
fix 1 all langevin ${temp} ${temp} 5 200
fix 1 all langevin 300 ${temp} 5 200
fix 1 all langevin 300 300 5 200
fix ensemble all nve
run 50000
Neighbor list info ...
  update every 1 steps, delay 10 steps, check yes
  max neighbors/atom: 2000, page size: 100000
  master list distance cutoff = 7.506786
  ghost atom cutoff = 7.506786
  binsize = 7.506786, bins = 190 142 67
  2 neighbor lists, perpetual/occasional/extra = 1 1 0
  (1) pair eam/alloy/kk, perpetual
      attributes: half, newton off, kokkos_device
      pair build: half/bin/kk/device
      stencil: full/bin/3d
      bin: kk/device
  (2) compute centro/atom, occasional
      attributes: full, newton off
      pair build: full/bin/atomonly
      stencil: full/bin/3d
      bin: standard
Per MPI rank memory allocation (min/avg/max) = 419 | 460.3 | 502.1 Mbytes
   Step          Temp          PotEng         Press            Lx      
         0   600           -1.3404495e+08  3811.5682      1424.2346    
      1000   300.30206     -1.3257607e+08  6373.1395      1424.2346    
      2000   298.28619     -1.3256476e+08  2446.7519      1424.2346    
      3000   296.08738     -1.3254211e+08 -821.03592      1424.2346    
      4000   298.63036     -1.3254363e+08  561.55649      1424.2346    
      5000   300.33946     -1.3255066e+08  2394.032       1424.2346    
      6000   300.91452     -1.325555e+08   4052.5448      1424.2346    
      7000   300.38069     -1.3255608e+08  3678.4811      1424.2346    
      8000   299.76523     -1.3255367e+08  2683.7566      1424.2346    
      9000   299.24851     -1.3254897e+08  1741.0967      1424.2346    
     10000   299.45758     -1.325471e+08   1671.4713      1424.2346    
     11000   300.00869     -1.3254849e+08  2211.0651      1424.2346    
     12000   300.30822     -1.3255075e+08  2768.7222      1424.2346    
     13000   300.29401     -1.3255197e+08  2988.7841      1424.2346    
     14000   300.11654     -1.3255213e+08  2765.1478      1424.2346    
     15000   299.95859     -1.3255079e+08  2494.1848      1424.2346    
     16000   299.876       -1.3254973e+08  2321.7627      1424.2346    
     17000   299.98264     -1.3254989e+08  2422.5508      1424.2346    
     18000   300.05483     -1.3255049e+08  2549.8474      1424.2346    
     19000   300.13604     -1.3255107e+08  2677.6262      1424.2346    
     20000   300.07818     -1.3255123e+08  2626.0076      1424.2346    
     21000   300.01929     -1.3255092e+08  2545.4123      1424.2346    
     22000   299.91976     -1.3255045e+08  2458.1188      1424.2346    
     23000   299.91064     -1.3255011e+08  2473.7479      1424.2346    
     24000   300.00003     -1.3255089e+08  2509.2651      1424.2346    
     25000   299.96106     -1.3255064e+08  2558.3482      1424.2346    
     26000   300.0042      -1.3255092e+08  2563.1082      1424.2346    
     27000   299.99267     -1.32551e+08    2543.6557      1424.2346    
     28000   299.93769     -1.3255078e+08  2519.3667      1424.2346    
     29000   299.97439     -1.3255068e+08  2514.0487      1424.2346    
     30000   300.00313     -1.3255087e+08  2530.4897      1424.2346    
     31000   300.03288     -1.3255072e+08  2539.6937      1424.2346    
     32000   300.0142      -1.3255076e+08  2550.3544      1424.2346    
     33000   299.95443     -1.3255057e+08  2539.406       1424.2346    
     34000   299.94277     -1.3255051e+08  2534.2348      1424.2346    
     35000   300.00511     -1.3255083e+08  2532.961       1424.2346    
     36000   299.97733     -1.3255096e+08  2532.8801      1424.2346    
     37000   299.97158     -1.325511e+08   2537.2295      1424.2346    
     38000   299.95512     -1.3255094e+08  2541.2889      1424.2346    
     39000   300.04757     -1.3255086e+08  2541.6388      1424.2346    
     40000   299.9631      -1.3255065e+08  2534.8223      1424.2346    
     41000   299.97511     -1.3255055e+08  2533.7663      1424.2346    
     42000   300.02493     -1.3255078e+08  2529.0192      1424.2346    
     43000   300.01821     -1.3255073e+08  2534.9797      1424.2346    
     44000   299.9846      -1.3255082e+08  2542.112       1424.2346    
     45000   299.9917      -1.3255055e+08  2547.1244      1424.2346    
     46000   300.01326     -1.3255092e+08  2541.9903      1424.2346    
     47000   299.9894      -1.3255082e+08  2527.2086      1424.2346    
     48000   299.98558     -1.3255068e+08  2526.9853      1424.2346    
     49000   299.93998     -1.3255051e+08  2532.3884      1424.2346    
     50000   299.97091     -1.3255096e+08  2537.9621      1424.2346    
Loop time of 653.379 on 32 procs for 50000 steps with 37948320 atoms

Performance: 13.224 ns/day, 1.815 hours/ns, 76.525 timesteps/s
71.9% CPU use with 32 MPI tasks x 1 OpenMP threads

MPI task timing breakdown:
Section |  min time  |  avg time  |  max time  |%varavg| %total
---------------------------------------------------------------
Pair    | 228.18     | 241.64     | 251.48     |  51.1 | 36.98
Neigh   | 18.827     | 28.093     | 40.536     | 142.2 |  4.30
Comm    | 39.435     | 48.425     | 57.961     | 122.8 |  7.41
Output  | 0.015451   | 0.61657    | 1.0884     |  49.1 |  0.09
Modify  | 185.12     | 260.39     | 331.14     | 429.9 | 39.85
Other   |            | 74.22      |            |       | 11.36

Nlocal:    1.18588e+06 ave 1.50649e+06 max      853910 min
Histogram: 16 0 0 0 0 0 0 0 0 16
Nghost:         185548 ave      218044 max      152277 min
Histogram: 16 0 0 0 0 0 0 0 0 16
Neighs:    8.55407e+07 ave 1.08675e+08 max 6.15901e+07 min
Histogram: 16 0 0 0 0 0 0 0 0 16
FullNghs:            0 ave           0 max           0 min
Histogram: 32 0 0 0 0 0 0 0 0 0

Total # of neighbors = 2.737303e+09
Ave neighs/atom = 72.13239
Neighbor list builds = 711
Dangerous builds = 0
unfix ensemble
write_data ${temp}_relaxed_config.lmp
write_data 300_relaxed_config.lmp
System init for write_data ...
#unfix freez
######################################
## NVT Langevin ##
#variable a loop 50
#label loop

#variable Ti equal ${temp}+($a-1)*4
#variable Tf equal ${temp}+$a*4
#reset_ids
#change_box all x scale ${eps} remap units box
fix        2 all deform 1 x erate ${sratex} units box remap x
fix        2 all deform 1 x erate 5e-06 units box remap x
#fix 1 all langevin ${temp} ${temp} 5 98

# Write dump file
#dump        shear all custom 500000 dump.min_*.lammpstrj id x y z # vx vy vz

#dump        defect all custom 100 dump.defect_*.lammpstrj id x y z c_csym
#dump_modify defect thresh c_csym <= 10 thresh c_csym > 4

fix         ensemble all nve
run 5000000
Per MPI rank memory allocation (min/avg/max) = 419 | 460.2 | 502 Mbytes
   Step          Temp          PotEng         Press            Lx      
     50000   299.97091     -1.3255096e+08  2537.9621      1424.2346    
     51000   299.91983     -1.3255096e+08  2524.5703      1424.2488    
     52000   299.92871     -1.3255086e+08  2522.6015      1424.2631    
     53000   299.95168     -1.3255042e+08  2526.6445      1424.2773    
     54000   300.04371     -1.3255093e+08  2522.7412      1424.2915    
     55000   300.04606     -1.3255075e+08  2524.0665      1424.3058    
     56000   300.04167     -1.3255091e+08  2519.38        1424.32      
     57000   299.99629     -1.3255062e+08  2513.1305      1424.3343    
     58000   300.05376     -1.3255066e+08  2512.8996      1424.3485    
     59000   300.00525     -1.3255042e+08  2514.162       1424.3628    
     60000   299.99825     -1.3255061e+08  2509.5598      1424.377     
     61000   299.9741      -1.3255084e+08  2510.4082      1424.3912    
     62000   299.97087     -1.3255054e+08  2509.0933      1424.4055    
     63000   300.01311     -1.3255055e+08  2502.9424      1424.4197    
     64000   300.00981     -1.3255074e+08  2490.3577      1424.434     
     65000   300.00032     -1.3255032e+08  2489.1847      1424.4482    
     66000   299.96207     -1.3255061e+08  2483.9528      1424.4625    
     67000   300.04602     -1.3255054e+08  2478.4036      1424.4767    
     68000   300.04875     -1.3255058e+08  2479.3954      1424.4909    
     69000   299.99506     -1.3255052e+08  2474.0107      1424.5052    
     70000   300.01482     -1.3255062e+08  2473.0294      1424.5194    
     71000   299.99178     -1.3255057e+08  2466.0264      1424.5337    
     72000   300.02233     -1.3255093e+08  2469.3238      1424.5479    
     73000   299.94879     -1.3255046e+08  2464.322       1424.5622    
     74000   299.97549     -1.3255039e+08  2475.7497      1424.5764    
     75000   299.98812     -1.3255054e+08  2468.9872      1424.5906    
     76000   300.001       -1.3255017e+08  2456.7037      1424.6049    
     77000   300.01163     -1.325504e+08   2449.6756      1424.6191    
     78000   300.00767     -1.3255047e+08  2455.8107      1424.6334    
     79000   299.95238     -1.3255043e+08  2457.5079      1424.6476    
     80000   299.95346     -1.3255082e+08  2448.8916      1424.6618    
     81000   300.02008     -1.3255101e+08  2444.7064      1424.6761    
     82000   300.00569     -1.3255098e+08  2436.9766      1424.6903    
     83000   300.01132     -1.3255098e+08  2445.3082      1424.7046    
     84000   299.98556     -1.3255085e+08  2445.8514      1424.7188    
     85000   299.93869     -1.3255079e+08  2444.8372      1424.7331    
     86000   299.95772     -1.3255104e+08  2439.9861      1424.7473    
     87000   299.93254     -1.3255056e+08  2427.0712      1424.7615    
     88000   299.87478     -1.3255044e+08  2419.4181      1424.7758    
     89000   299.99193     -1.3255104e+08  2413.3111      1424.79      
     90000   299.96686     -1.3255075e+08  2427.5944      1424.8043    
     91000   300.04596     -1.3255068e+08  2428.6487      1424.8185    
     92000   300.06466     -1.3255086e+08  2420.8124      1424.8328    
     93000   300.07655     -1.3255073e+08  2407.4886      1424.847     
     94000   299.9377      -1.3255029e+08  2397.3288      1424.8612    
     95000   300.01223     -1.325506e+08   2403.6529      1424.8755    
     96000   300.02263     -1.3255093e+08  2408.609       1424.8897    
     97000   300.02083     -1.3255071e+08  2403.3539      1424.904     
     98000   299.94447     -1.3255069e+08  2396.9571      1424.9182    
     99000   299.9758      -1.3255085e+08  2386.1303      1424.9325    
    100000   299.92898     -1.325506e+08   2386.6325      1424.9467    
    101000   299.9999      -1.3255082e+08  2379.6567      1424.9609    
    102000   299.94987     -1.3255073e+08  2376.7727      1424.9752    
    103000   299.91832     -1.3255072e+08  2374.7437      1424.9894    
    104000   299.93366     -1.3255065e+08  2382.8197      1425.0037    
    105000   299.96801     -1.3255076e+08  2378.8045      1425.0179    
    106000   299.93826     -1.3255075e+08  2378.5626      1425.0322    
    107000   299.97229     -1.3255056e+08  2368.0215      1425.0464    
    108000   299.98152     -1.3255057e+08  2361.8419      1425.0606    
    109000   299.95954     -1.325502e+08   2358.261       1425.0749    
    110000   299.89183     -1.3255035e+08  2357.967       1425.0891    
    111000   299.94225     -1.3255064e+08  2357.5187      1425.1034    
    112000   299.92761     -1.3255062e+08  2358.0818      1425.1176    
    113000   300.00107     -1.3255093e+08  2351.3309      1425.1318    
    114000   299.97602     -1.3255065e+08  2348.5534      1425.1461    
    115000   299.95701     -1.3255068e+08  2341.3185      1425.1603    
    116000   300.01803     -1.3255058e+08  2340.3214      1425.1746    
    117000   299.9595      -1.3255041e+08  2340.631       1425.1888    
    118000   299.9975      -1.3255066e+08  2355.0002      1425.2031    
    119000   299.93952     -1.3255045e+08  2347.0572      1425.2173    
    120000   300.01958     -1.3255029e+08  2344.6159      1425.2315    
    121000   300.00112     -1.3255049e+08  2326.0578      1425.2458    
    122000   299.98384     -1.3255041e+08  2316.0606      1425.26      
    123000   299.96117     -1.3255027e+08  2314.3632      1425.2743    
    124000   300.0107      -1.3255067e+08  2322.1001      1425.2885    
    125000   300.01133     -1.3255036e+08  2323.3461      1425.3028    
    126000   300.02799     -1.3255051e+08  2322.9431      1425.317     
    127000   300.0518      -1.3255072e+08  2321.3917      1425.3312    
    128000   299.98689     -1.3255057e+08  2315.7558      1425.3455    
    129000   300.0196      -1.3255079e+08  2314.9562      1425.3597    
    130000   300.01166     -1.3255079e+08  2312.2074      1425.374     
    131000   299.98064     -1.3255085e+08  2300.9188      1425.3882    
    132000   300.02296     -1.3255052e+08  2294.5442      1425.4025    
    133000   300.00325     -1.3255061e+08  2291.8568      1425.4167    
    134000   299.97034     -1.3255013e+08  2297.8395      1425.4309    
    135000   300.00932     -1.3255023e+08  2304.1577      1425.4452    
    136000   299.97084     -1.325503e+08   2295.0698      1425.4594    
    137000   299.92915     -1.3255032e+08  2291.7878      1425.4737    
    138000   300.05259     -1.3255049e+08  2279.5841      1425.4879    
    139000   300.0101      -1.3255058e+08  2275.5427      1425.5021    
    140000   299.98079     -1.3255033e+08  2278.6984      1425.5164    
    141000   299.95529     -1.3255035e+08  2276.0284      1425.5306    
    142000   300.01664     -1.3255055e+08  2277.0471      1425.5449    
    143000   300.04086     -1.3255039e+08  2279.7331      1425.5591    
    144000   300.07042     -1.3255006e+08  2271.7171      1425.5734    
    145000   300.02724     -1.3254992e+08  2269.0235      1425.5876    
    146000   300.01302     -1.3254996e+08  2261.0915      1425.6018    
    147000   300.00439     -1.3254997e+08  2263.8722      1425.6161    
    148000   300.05503     -1.3255025e+08  2257.9301      1425.6303    
    149000   299.99317     -1.3255017e+08  2251.0159      1425.6446    
    150000   299.95449     -1.3255018e+08  2245.7923      1425.6588    
    151000   300.05206     -1.325502e+08   2244.0485      1425.6731    
    152000   299.99019     -1.3255029e+08  2238.5285      1425.6873    
    153000   300.01869     -1.3255036e+08  2242.2996      1425.7015    
    154000   299.94874     -1.3255019e+08  2240.197       1425.7158    
    155000   299.99855     -1.3255058e+08  2238.7629      1425.73      
    156000   299.94511     -1.3255034e+08  2233.1011      1425.7443    
    157000   299.94304     -1.3255037e+08  2228.3101      1425.7585    
    158000   299.9421      -1.3255068e+08  2226.6961      1425.7728    
    159000   299.99934     -1.3255047e+08  2225.6585      1425.787     
    160000   300.01834     -1.3255056e+08  2225.3209      1425.8012    
    161000   299.93958     -1.3255054e+08  2221.6394      1425.8155    
    162000   299.97571     -1.3255012e+08  2220.11        1425.8297    
    163000   299.96047     -1.3255017e+08  2209.9396      1425.844     
    164000   300.03632     -1.3255022e+08  2205.8824      1425.8582    
    165000   300.0197      -1.3254983e+08  2198.8598      1425.8724    
    166000   300.02496     -1.3255015e+08  2192.636       1425.8867    
    167000   300.00555     -1.3255018e+08  2199.4499      1425.9009    
    168000   300.00472     -1.3255038e+08  2198.5784      1425.9152    
    169000   300.02305     -1.3255044e+08  2193.7736      1425.9294    
    170000   300.01726     -1.3255063e+08  2186.094       1425.9437    
    171000   300.00635     -1.3255024e+08  2184.3404      1425.9579    
    172000   300.02327     -1.3254999e+08  2187.975       1425.9721    
    173000   300.07347     -1.3255013e+08  2177.1225      1425.9864    
    174000   299.98591     -1.3254976e+08  2177.9199      1426.0006    
    175000   299.99131     -1.3254996e+08  2169.5726      1426.0149    
    176000   300.01612     -1.3255008e+08  2182.358       1426.0291    
    177000   300.03487     -1.3255026e+08  2172.7223      1426.0434    
    178000   299.98289     -1.3255027e+08  2169.892       1426.0576    
    179000   299.95235     -1.3255008e+08  2161.3103      1426.0718    
    180000   299.96769     -1.3255027e+08  2156.4442      1426.0861    
    181000   299.89438     -1.3255005e+08  2152.788       1426.1003    
    182000   299.95481     -1.3255044e+08  2152.0321      1426.1146    
    183000   299.9633      -1.3255016e+08  2155.0274      1426.1288    
    184000   299.9813      -1.3255019e+08  2157.0985      1426.1431    
    185000   299.97807     -1.3254991e+08  2153.7131      1426.1573    
    186000   300.00296     -1.3255023e+08  2143.5271      1426.1715    
    187000   300.01308     -1.3255004e+08  2141.5391      1426.1858    
    188000   300.00975     -1.3254982e+08  2144.317       1426.2       
    189000   300.03846     -1.3254999e+08  2142.4601      1426.2143    
    190000   299.98551     -1.3254971e+08  2135.2338      1426.2285    
    191000   299.99758     -1.325499e+08   2129.5637      1426.2428    
    192000   300.02109     -1.3255021e+08  2119.4399      1426.257     
    193000   300.00356     -1.3255013e+08  2128.5945      1426.2712    
    194000   300.06459     -1.3255015e+08  2118.1291      1426.2855    
    195000   300.03548     -1.3254996e+08  2121.1588      1426.2997    
    196000   300.00855     -1.325499e+08   2114.7138      1426.314     
    197000   300.02483     -1.3254998e+08  2113.0453      1426.3282    
    198000   300.0451      -1.3255006e+08  2113.0863      1426.3424    
    199000   300.02861     -1.3254967e+08  2119.5507      1426.3567    
    200000   300.05788     -1.3254983e+08  2108.7531      1426.3709    
    201000   300.01111     -1.3255003e+08  2104.9384      1426.3852    
    202000   300.00824     -1.3255002e+08  2092.6169      1426.3994    
    203000   299.99798     -1.3255001e+08  2096.7669      1426.4137    
    204000   300.00874     -1.3255011e+08  2098.0595      1426.4279    
    205000   300.01924     -1.3254978e+08  2098.6592      1426.4421    
    206000   299.96307     -1.3254977e+08  2093.6217      1426.4564    
    207000   299.97959     -1.3255e+08     2082.5757      1426.4706    
    208000   299.97045     -1.3254995e+08  2081.3299      1426.4849    
    209000   299.96299     -1.3254984e+08  2082.2989      1426.4991    
    210000   299.9912      -1.3254972e+08  2076.6373      1426.5134    
    211000   299.99343     -1.3254965e+08  2070.0115      1426.5276    
    212000   299.99206     -1.3254985e+08  2069.484       1426.5418    
    213000   300.0332      -1.3255005e+08  2066.6067      1426.5561    
    214000   299.97842     -1.3254994e+08  2074.4269      1426.5703    
    215000   299.97001     -1.325498e+08   2074.3345      1426.5846    
    216000   299.92143     -1.3254977e+08  2071.4228      1426.5988    
    217000   299.94641     -1.3254997e+08  2055.1126      1426.6131    
    218000   299.9633      -1.325499e+08   2052.5611      1426.6273    
    219000   300.00037     -1.3254974e+08  2047.9281      1426.6415    
    220000   299.92746     -1.3254995e+08  2045.7681      1426.6558    
    221000   299.95771     -1.3254991e+08  2045.9201      1426.67      
    222000   300.02057     -1.3255023e+08  2042.7788      1426.6843    
    223000   299.95654     -1.3255014e+08  2039.8398      1426.6985    
    224000   299.93674     -1.3254958e+08  2040.5032      1426.7127    
    225000   300.02114     -1.3254971e+08  2034.3077      1426.727     
    226000   299.96429     -1.3254973e+08  2035.1586      1426.7412    
    227000   299.95609     -1.3255e+08     2036.2653      1426.7555    
    228000   299.92084     -1.3254971e+08  2034.8926      1426.7697    
    229000   299.95619     -1.325498e+08   2026.013       1426.784     
    230000   299.99096     -1.325499e+08   2017.9726      1426.7982    
    231000   299.92873     -1.3254988e+08  2018.4671      1426.8124    
    232000   299.942       -1.3254965e+08  2013.0129      1426.8267    
    233000   300.10937     -1.325501e+08   2009.5305      1426.8409    
    234000   300.02851     -1.325493e+08   2008.4185      1426.8552    
    235000   300.05183     -1.3254931e+08  2006.5197      1426.8694    
    236000   300.07068     -1.3254923e+08  2005.0149      1426.8837    
    237000   300.0541      -1.3254945e+08  1998.7352      1426.8979    
    238000   300.04358     -1.3254948e+08  2005.6313      1426.9121    
    239000   299.9891      -1.3254939e+08  2009.3304      1426.9264    
    240000   300.05611     -1.3254938e+08  2001.3237      1426.9406    
    241000   300.07173     -1.325498e+08   1992.534       1426.9549    
    242000   300.08312     -1.3254965e+08  1991.2179      1426.9691    
    243000   300.09019     -1.3254933e+08  1996.2376      1426.9834    
    244000   300.00279     -1.3254942e+08  1995.8087      1426.9976    
    245000   300.06008     -1.3254972e+08  1986.7179      1427.0118    
    246000   300.01776     -1.3254963e+08  1977.7061      1427.0261    
    247000   299.96748     -1.3254944e+08  1976.3192      1427.0403    
    248000   299.92354     -1.3254952e+08  1971.0924      1427.0546    
    249000   300.01186     -1.3255005e+08  1965.9181      1427.0688    
    250000   299.90324     -1.3254954e+08  1960.7779      1427.083     
    251000   299.93273     -1.3254957e+08  1962.4281      1427.0973    
    252000   299.9442      -1.3254971e+08  1969.6893      1427.1115    
    253000   299.95514     -1.3254966e+08  1968.7861      1427.1258    
    254000   299.97176     -1.3254965e+08  1964.0109      1427.14      
    255000   300.03798     -1.3254968e+08  1949.6923      1427.1543    
    256000   300.02692     -1.3254942e+08  1942.753       1427.1685    
    257000   300.03507     -1.3254956e+08  1943.8308      1427.1827    
    258000   300.02139     -1.3254988e+08  1945.1088      1427.197     
    259000   300.00366     -1.3254975e+08  1941.724       1427.2112    
    260000   299.99752     -1.3254962e+08  1934.5592      1427.2255    
    261000   299.99007     -1.3254958e+08  1932.49        1427.2397    
    262000   300.00264     -1.3254944e+08  1924.6994      1427.254     
    263000   300.03382     -1.3254932e+08  1936.844       1427.2682    
    264000   300.07573     -1.3254945e+08  1925.9718      1427.2824    
    265000   299.99938     -1.3254945e+08  1921.8197      1427.2967    
    266000   299.95671     -1.325495e+08   1927.1975      1427.3109    
    267000   300.01663     -1.3254969e+08  1920.2002      1427.3252    
    268000   299.93325     -1.3254949e+08  1915.9657      1427.3394    
    269000   299.9627      -1.3254934e+08  1904.8246      1427.3537    
    270000   299.97946     -1.3254972e+08  1904.3559      1427.3679    
    271000   299.97126     -1.3254976e+08  1904.6253      1427.3821    
    272000   299.9144      -1.3254946e+08  1907.1458      1427.3964    
    273000   299.94307     -1.3254959e+08  1908.0708      1427.4106    
    274000   300.00025     -1.3254951e+08  1901.8989      1427.4249    
    275000   300.04853     -1.3254918e+08  1895.6341      1427.4391    
    276000   300.00477     -1.3254914e+08  1891.4028      1427.4533    
    277000   300.0313      -1.3254928e+08  1896.0752      1427.4676    
    278000   300.03067     -1.3254928e+08  1893.0824      1427.4818    
    279000   300.0004      -1.3254942e+08  1896.794       1427.4961    
    280000   300.00416     -1.3254965e+08  1887.0901      1427.5103    
    281000   299.99422     -1.3254969e+08  1882.499       1427.5246    
    282000   299.97697     -1.3254934e+08  1878.2994      1427.5388    
    283000   299.94999     -1.3254929e+08  1878.8497      1427.553     
    284000   299.98505     -1.3254938e+08  1869.6541      1427.5673    
    285000   300.05194     -1.3254958e+08  1872.3474      1427.5815    
    286000   299.98628     -1.3254914e+08  1875.5374      1427.5958    
    287000   299.98826     -1.3254934e+08  1867.5814      1427.61      
    288000   299.96563     -1.3254925e+08  1857.1295      1427.6243    
    289000   299.95899     -1.3254916e+08  1849.923       1427.6385    
    290000   300.05126     -1.3254953e+08  1851.8998      1427.6527    
    291000   299.99328     -1.3254898e+08  1869.1075      1427.667     
    292000   300.02899     -1.3254924e+08  1861.1449      1427.6812    
    293000   300.05949     -1.3254929e+08  1846.7248      1427.6955    
    294000   299.97378     -1.3254878e+08  1844.2206      1427.7097    
    295000   300.03214     -1.32549e+08    1825.5499      1427.724     
    296000   299.99386     -1.3254911e+08  1837.1097      1427.7382    
    297000   299.98136     -1.3254897e+08  1837.7821      1427.7524    
    298000   300.05515     -1.3254921e+08  1837.3662      1427.7667    
    299000   300.02331     -1.3254924e+08  1831.0148      1427.7809    
    300000   299.98566     -1.3254917e+08  1821.8426      1427.7952    
    301000   300.0411      -1.3254916e+08  1820.0361      1427.8094    
    302000   300.03809     -1.3254899e+08  1820.8518      1427.8237    
    303000   300.06364     -1.3254912e+08  1820.1727      1427.8379    
    304000   300.07399     -1.3254903e+08  1816.8031      1427.8521    
    305000   299.99192     -1.3254895e+08  1810.0374      1427.8664    
    306000   300.02647     -1.3254946e+08  1808.9571      1427.8806    
    307000   299.95698     -1.325489e+08   1806.697       1427.8949    
    308000   299.95645     -1.3254918e+08  1812.1952      1427.9091    
    309000   300.00756     -1.3254917e+08  1804.2754      1427.9233    
    310000   299.99191     -1.3254898e+08  1806.7907      1427.9376    
    311000   300.02361     -1.3254888e+08  1799.304       1427.9518    
    312000   299.99846     -1.3254882e+08  1795.7169      1427.9661    
    313000   299.94703     -1.3254881e+08  1782.4552      1427.9803    
    314000   300.00245     -1.3254903e+08  1782.2055      1427.9946    
    315000   300.02665     -1.3254895e+08  1777.609       1428.0088    
    316000   300.03018     -1.3254915e+08  1780.5881      1428.023     
    317000   300.00959     -1.3254889e+08  1774.3375      1428.0373    
    318000   300.02401     -1.3254878e+08  1783.4387      1428.0515    
    319000   300.0332      -1.3254888e+08  1783.2473      1428.0658    
    320000   300.01879     -1.325486e+08   1785.4216      1428.08      
    321000   300.03042     -1.3254873e+08  1771.374       1428.0943    
    322000   300.05228     -1.3254854e+08  1761.934       1428.1085    
    323000   300.03672     -1.325484e+08   1763.2129      1428.1227    
    324000   300.03266     -1.3254901e+08  1758.6404      1428.137     
    325000   300.03061     -1.3254918e+08  1756.0811      1428.1512    
    326000   299.94159     -1.3254845e+08  1758.2752      1428.1655    
    327000   299.97051     -1.3254885e+08  1754.0081      1428.1797    
    328000   299.96458     -1.3254909e+08  1744.743       1428.194     
    329000   299.91982     -1.325488e+08   1756.6879      1428.2082    
    330000   299.96441     -1.3254894e+08  1743.8251      1428.2224    
    331000   299.94212     -1.325488e+08   1750.7844      1428.2367    
    332000   299.9729      -1.3254921e+08  1739.5539      1428.2509    
    333000   299.92415     -1.3254875e+08  1743.2937      1428.2652    
    334000   300.03119     -1.3254883e+08  1727.1655      1428.2794    
    335000   299.95182     -1.325487e+08   1724.8807      1428.2936    
    336000   300.02026     -1.3254916e+08  1724.0094      1428.3079    
    337000   299.99751     -1.3254904e+08  1724.2912      1428.3221    
    338000   300.00958     -1.3254919e+08  1720.9092      1428.3364    
    339000   299.9206      -1.3254879e+08  1727.1225      1428.3506    
    340000   299.93234     -1.3254921e+08  1719.4042      1428.3649    
    341000   299.91857     -1.3254904e+08  1712.6731      1428.3791    
    342000   299.91346     -1.3254896e+08  1703.3423      1428.3933    
    343000   299.93294     -1.325488e+08   1719.7095      1428.4076    
    344000   299.9574      -1.3254887e+08  1708.2743      1428.4218    
    345000   299.97253     -1.3254886e+08  1702.9309      1428.4361    
    346000   300.00878     -1.3254898e+08  1695.2329      1428.4503    
    347000   299.96643     -1.3254858e+08  1684.4877      1428.4646    
    348000   300.00095     -1.3254843e+08  1683.3185      1428.4788    
    349000   300.04583     -1.3254857e+08  1691.8239      1428.493     
    350000   299.98577     -1.3254825e+08  1695.1105      1428.5073    
    351000   300.01641     -1.3254845e+08  1690.9643      1428.5215    
    352000   300.04371     -1.3254875e+08  1678.0629      1428.5358    
    353000   300.05834     -1.3254863e+08  1680.3469      1428.55      
    354000   299.97607     -1.3254807e+08  1676.1568      1428.5643    
    355000   300.06024     -1.3254813e+08  1674.1943      1428.5785    
    356000   300.07507     -1.3254815e+08  1676.5704      1428.5927    
    357000   300.02693     -1.3254834e+08  1665.6556      1428.607     
    358000   300.00145     -1.3254835e+08  1670.1908      1428.6212    
    359000   300.01582     -1.3254821e+08  1669.8595      1428.6355    
    360000   300.01791     -1.3254842e+08  1663.5706      1428.6497    
    361000   300.01608     -1.3254783e+08  1655.1242      1428.6639    
    362000   300.06101     -1.3254794e+08  1649.4866      1428.6782    
    363000   300.02293     -1.3254803e+08  1645.7218      1428.6924    
    364000   300.00264     -1.3254809e+08  1652.0504      1428.7067    
    365000   300.04228     -1.325482e+08   1656.7257      1428.7209    
    366000   300.02117     -1.3254825e+08  1654.4387      1428.7352    
    367000   300.03901     -1.3254856e+08  1636.8913      1428.7494    
    368000   300.01456     -1.3254827e+08  1642.4604      1428.7636    
    369000   300.03778     -1.3254795e+08  1628.7166      1428.7779    
    370000   300.03138     -1.3254795e+08  1633.7113      1428.7921    
    371000   300.00397     -1.3254805e+08  1620.5268      1428.8064    
    372000   300.01284     -1.3254833e+08  1629.7959      1428.8206    
    373000   299.97593     -1.3254827e+08  1632.3853      1428.8349    
    374000   299.95085     -1.3254867e+08  1626.818       1428.8491    
    375000   299.98996     -1.3254841e+08  1617.8363      1428.8633    
    376000   299.96127     -1.3254848e+08  1610.8008      1428.8776    
    377000   299.94757     -1.3254822e+08  1610.0467      1428.8918    
    378000   299.95257     -1.3254825e+08  1612.8218      1428.9061    
    379000   299.95358     -1.3254845e+08  1609.5823      1428.9203    
    380000   299.94749     -1.3254842e+08  1605.8278      1428.9346    
    381000   299.96602     -1.3254832e+08  1602.8147      1428.9488    
    382000   299.98618     -1.3254816e+08  1603.4636      1428.963     
    383000   299.94193     -1.3254804e+08  1599.5818      1428.9773    
    384000   299.96049     -1.3254818e+08  1603.0308      1428.9915    
    385000   299.94551     -1.3254819e+08  1589.6369      1429.0058    
    386000   300.00276     -1.3254818e+08  1593.7556      1429.02      
    387000   300.00039     -1.325481e+08   1585.6632      1429.0343    
    388000   300.03008     -1.3254819e+08  1595.5477      1429.0485    
    389000   300.06439     -1.3254813e+08  1586.1284      1429.0627    
    390000   299.98743     -1.3254794e+08  1579.9926      1429.077     
    391000   300.03913     -1.3254793e+08  1578.2029      1429.0912    
    392000   300.01236     -1.3254793e+08  1577.4737      1429.1055    
    393000   300.03103     -1.3254799e+08  1578.6484      1429.1197    
    394000   300.10019     -1.3254793e+08  1574.1775      1429.1339    
    395000   300.0451      -1.3254786e+08  1564.9142      1429.1482    
    396000   300.01474     -1.3254784e+08  1562.8681      1429.1624    
    397000   299.98488     -1.3254781e+08  1559.3238      1429.1767    
    398000   300.04121     -1.3254796e+08  1569.9102      1429.1909    
    399000   300.04848     -1.3254773e+08  1558.5924      1429.2052    
    400000   300.03574     -1.3254761e+08  1551.99        1429.2194    
    401000   300.05974     -1.3254786e+08  1542.5037      1429.2336    
    402000   300.05002     -1.325481e+08   1540.3331      1429.2479    
    403000   300.02236     -1.3254787e+08  1549.7822      1429.2621    
    404000   299.97647     -1.3254775e+08  1548.1742      1429.2764    
    405000   300.00092     -1.3254767e+08  1545.944       1429.2906    
    406000   299.97891     -1.3254734e+08  1526.6908      1429.3049    
    407000   300.05528     -1.3254741e+08  1524.2441      1429.3191    
    408000   300.04781     -1.3254756e+08  1529.2342      1429.3333    
    409000   300.03047     -1.325478e+08   1533.2423      1429.3476    
    410000   300.02255     -1.3254817e+08  1529.9102      1429.3618    
    411000   299.94683     -1.3254765e+08  1520.0627      1429.3761    
    412000   299.93689     -1.3254728e+08  1520.4973      1429.3903    
    413000   300.01559     -1.3254752e+08  1509.4576      1429.4046    
    414000   300.00563     -1.325478e+08   1511.0911      1429.4188    
    415000   299.99205     -1.3254788e+08  1507.1296      1429.433     
    416000   299.97847     -1.3254788e+08  1504.2112      1429.4473    
    417000   299.94233     -1.3254761e+08  1505.2024      1429.4615    
    418000   299.94278     -1.3254763e+08  1505.0205      1429.4758    
    419000   300.00796     -1.3254776e+08  1503.8785      1429.49      
    420000   299.96823     -1.3254767e+08  1500.8269      1429.5042    
    421000   299.9763      -1.3254766e+08  1501.2839      1429.5185    
    422000   299.96682     -1.325478e+08   1493.1157      1429.5327    
    423000   299.94403     -1.3254764e+08  1488.5772      1429.547     
    424000   300.04671     -1.3254769e+08  1488.7742      1429.5612    
    425000   300.01547     -1.325475e+08   1481.704       1429.5755    
    426000   300.00361     -1.325472e+08   1482.1133      1429.5897    
    427000   300.03601     -1.3254751e+08  1478.1822      1429.6039    
    428000   299.9949      -1.3254731e+08  1475.1098      1429.6182    
    429000   299.98865     -1.3254731e+08  1472.6557      1429.6324    
    430000   300.01733     -1.325475e+08   1467.0305      1429.6467    
    431000   299.9271      -1.3254738e+08  1465.4659      1429.6609    
    432000   299.96868     -1.3254743e+08  1459.9936      1429.6752    
    433000   299.92783     -1.3254724e+08  1459.5384      1429.6894    
    434000   300.01611     -1.3254756e+08  1464.9768      1429.7036    
    435000   300.00328     -1.3254741e+08  1461.0936      1429.7179    
    436000   300.03252     -1.3254739e+08  1463.9391      1429.7321    
    437000   299.96928     -1.3254725e+08  1451.4164      1429.7464    
    438000   299.92087     -1.3254736e+08  1449.8413      1429.7606    
    439000   299.97622     -1.3254733e+08  1437.697       1429.7749    
    440000   299.94218     -1.3254729e+08  1432.5919      1429.7891    
    441000   300.03283     -1.3254718e+08  1431.8416      1429.8033    
    442000   300.05012     -1.3254736e+08  1431.4162      1429.8176    
    443000   299.99808     -1.3254713e+08  1434.3402      1429.8318    
    444000   300.04549     -1.3254725e+08  1430.5608      1429.8461    
    445000   300.03069     -1.3254734e+08  1428.6418      1429.8603    
    446000   299.98701     -1.3254731e+08  1426.9006      1429.8745    
    447000   300.02033     -1.3254738e+08  1435.6706      1429.8888    
    448000   300.01823     -1.3254738e+08  1428.6685      1429.903     
    449000   299.98284     -1.3254733e+08  1414.8276      1429.9173    
    450000   299.97439     -1.3254712e+08  1412.2002      1429.9315    
    451000   299.97912     -1.3254746e+08  1409.1719      1429.9458    
    452000   299.9432      -1.325472e+08   1406.6973      1429.96      
    453000   299.98544     -1.3254713e+08  1409.7886      1429.9742    
    454000   300.01163     -1.3254708e+08  1399.6567      1429.9885    
    455000   300.08493     -1.3254748e+08  1395.9887      1430.0027    
    456000   300.00632     -1.32547e+08    1397.2534      1430.017     
    457000   300.00217     -1.3254699e+08  1393.6615      1430.0312    
    458000   299.97026     -1.3254722e+08  1398.5541      1430.0455    
    459000   299.94506     -1.325474e+08   1397.6924      1430.0597    
    460000   300.00702     -1.3254729e+08  1388.1992      1430.0739    
    461000   300.00648     -1.3254707e+08  1384.8559      1430.0882    
    462000   299.94657     -1.3254653e+08  1376.2505      1430.1024    
    463000   299.98137     -1.3254697e+08  1373.0673      1430.1167    
    464000   299.96739     -1.3254693e+08  1368.8064      1430.1309    
    465000   299.99274     -1.3254677e+08  1375.9082      1430.1452    
    466000   300.01121     -1.3254703e+08  1373.2996      1430.1594    
    467000   300.01729     -1.3254695e+08  1375.5754      1430.1736    
    468000   299.97265     -1.3254684e+08  1369.9899      1430.1879    
    469000   300.02461     -1.3254738e+08  1363.0048      1430.2021    
    470000   299.91916     -1.3254705e+08  1345.2372      1430.2164    
    471000   300.05303     -1.3254679e+08  1346.4917      1430.2306    
    472000   299.99355     -1.3254663e+08  1342.037       1430.2448    
    473000   300.02615     -1.3254655e+08  1352.291       1430.2591    
    474000   300.03043     -1.3254649e+08  1358.6938      1430.2733    
    475000   300.06536     -1.3254717e+08  1348.93        1430.2876    
    476000   299.9614      -1.3254693e+08  1346.8139      1430.3018    
    477000   299.95153     -1.3254658e+08  1333.1314      1430.3161    
    478000   299.95607     -1.325468e+08   1335.2368      1430.3303    
    479000   299.93578     -1.3254652e+08  1334.8526      1430.3445    
    480000   300.00507     -1.325465e+08   1339.2166      1430.3588    
    481000   300.03996     -1.3254664e+08  1332.7452      1430.373     
    482000   299.99908     -1.3254662e+08  1321.3634      1430.3873    
    483000   300.03861     -1.325466e+08   1317.7905      1430.4015    
    484000   299.99538     -1.3254653e+08  1311.2202      1430.4158    
    485000   299.93199     -1.3254646e+08  1315.9605      1430.43      
    486000   299.99102     -1.3254652e+08  1314.4217      1430.4442    
    487000   300.02842     -1.3254666e+08  1312.2552      1430.4585    
    488000   299.9765      -1.3254641e+08  1311.1779      1430.4727    
    489000   300.05663     -1.3254638e+08  1314.0319      1430.487     
    490000   300.02779     -1.3254614e+08  1308.651       1430.5012    
    491000   299.99898     -1.3254633e+08  1306.9363      1430.5155    
    492000   299.98819     -1.325468e+08   1300.763       1430.5297    
    493000   299.99049     -1.3254666e+08  1286.7623      1430.5439    
    494000   300.01174     -1.3254641e+08  1287.0647      1430.5582    
    495000   300.03528     -1.325464e+08   1290.7035      1430.5724    
    496000   300.07284     -1.3254606e+08  1291.0234      1430.5867    
    497000   300.04697     -1.3254589e+08  1292.2632      1430.6009    
    498000   300.08401     -1.3254596e+08  1279.9078      1430.6152    
    499000   300.0648      -1.3254611e+08  1278.9841      1430.6294    
    500000   300.01265     -1.325462e+08   1270.1974      1430.6436    
    501000   300.02908     -1.3254618e+08  1284.6538      1430.6579    
    502000   300.03313     -1.3254613e+08  1287.3116      1430.6721    
    503000   299.95317     -1.3254607e+08  1276.3101      1430.6864    
    504000   299.96323     -1.3254638e+08  1260.5133      1430.7006    
    505000   299.99527     -1.3254616e+08  1264.3864      1430.7148    
    506000   299.99407     -1.3254616e+08  1264.6782      1430.7291    
    507000   299.97507     -1.3254616e+08  1254.5403      1430.7433    
    508000   299.98533     -1.3254632e+08  1250.9948      1430.7576    
    509000   300.01287     -1.3254625e+08  1247.6704      1430.7718    
    510000   299.99113     -1.3254563e+08  1252.9308      1430.7861    
    511000   300.0809      -1.3254625e+08  1248.338       1430.8003    
    512000   300.02742     -1.3254563e+08  1240.5417      1430.8145    
    513000   300.06305     -1.3254604e+08  1235.4965      1430.8288    
    514000   300.0575      -1.3254578e+08  1232.4731      1430.843     
    515000   299.99001     -1.325457e+08   1232.3749      1430.8573    
    516000   300.02671     -1.3254595e+08  1229.6346      1430.8715    
    517000   300.07053     -1.3254615e+08  1229.2598      1430.8858    
    518000   299.99705     -1.3254593e+08  1229.7155      1430.9       
    519000   299.9873      -1.3254632e+08  1227.8793      1430.9142    
    520000   299.95155     -1.3254611e+08  1233.6268      1430.9285    
    521000   299.96345     -1.3254609e+08  1224.2998      1430.9427    
    522000   300.00747     -1.3254632e+08  1218.6891      1430.957     
    523000   299.97848     -1.3254603e+08  1220.1883      1430.9712    
    524000   300.00436     -1.3254596e+08  1225.0218      1430.9855    
    525000   300.00087     -1.3254606e+08  1218.2074      1430.9997    
    526000   300.00899     -1.3254583e+08  1213.6144      1431.0139    
    527000   300.04213     -1.32546e+08    1208.1987      1431.0282    
    528000   300.00121     -1.3254582e+08  1199.5209      1431.0424    
    529000   299.95727     -1.3254528e+08  1203.6407      1431.0567    
    530000   299.98966     -1.3254571e+08  1197.8553      1431.0709    
    531000   299.96763     -1.3254595e+08  1188.8776      1431.0851    
    532000   299.96693     -1.3254594e+08  1183.7129      1431.0994    
    533000   299.98945     -1.3254567e+08  1181.7009      1431.1136    
    534000   300.0737      -1.325458e+08   1186.6901      1431.1279    
    535000   300.05993     -1.3254558e+08  1192.324       1431.1421    
    536000   300.03551     -1.3254553e+08  1194.7484      1431.1564    
    537000   299.95826     -1.3254563e+08  1182.7548      1431.1706    
    538000   299.99647     -1.3254596e+08  1176.5504      1431.1848    
    539000   299.99146     -1.3254561e+08  1164.4002      1431.1991    
    540000   299.98257     -1.3254548e+08  1166.2817      1431.2133    
    541000   299.99387     -1.3254561e+08  1154.6209      1431.2276    
    542000   299.94007     -1.3254571e+08  1166.461       1431.2418    
    543000   299.93438     -1.3254585e+08  1169.1924      1431.2561    
    544000   299.90073     -1.3254546e+08  1170.0054      1431.2703    
    545000   299.98958     -1.325457e+08   1155.7549      1431.2845    
    546000   299.95808     -1.325455e+08   1150.2336      1431.2988    
    547000   299.98871     -1.3254551e+08  1143.9779      1431.313     
    548000   300.03294     -1.3254564e+08  1144.8351      1431.3273    
    549000   299.98158     -1.3254511e+08  1142.4414      1431.3415    
    550000   300.06515     -1.3254545e+08  1143.3171      1431.3558    
    551000   300.04747     -1.325455e+08   1139.5998      1431.37      
    552000   299.96938     -1.3254502e+08  1136.9892      1431.3842    
    553000   299.98095     -1.3254515e+08  1139.4398      1431.3985    
    554000   299.94502     -1.3254522e+08  1134.8725      1431.4127    
    555000   299.94326     -1.3254517e+08  1139.7492      1431.427     
    556000   299.96291     -1.3254525e+08  1122.0378      1431.4412    
    557000   300.0033      -1.3254553e+08  1115.2669      1431.4554    
    558000   299.98202     -1.3254531e+08  1102.8909      1431.4697    
    559000   300.0469      -1.325454e+08   1115.5856      1431.4839    
    560000   299.95903     -1.3254508e+08  1116.1146      1431.4982    
    561000   299.96886     -1.3254491e+08  1115.8189      1431.5124    
    562000   300.01719     -1.3254517e+08  1114.9432      1431.5267    
    563000   300.01974     -1.3254517e+08  1114.1004      1431.5409    
    564000   299.95677     -1.325451e+08   1115.2243      1431.5551    
    565000   299.99559     -1.3254513e+08  1105.5225      1431.5694    
    566000   300.01317     -1.3254494e+08  1100.9337      1431.5836    
    567000   299.98872     -1.3254485e+08  1094.4713      1431.5979    
    568000   299.97981     -1.3254473e+08  1090.6621      1431.6121    
    569000   300.07877     -1.3254496e+08  1090.6757      1431.6264    
    570000   300.03001     -1.3254482e+08  1094.5618      1431.6406    
    571000   300.08382     -1.3254479e+08  1096.0837      1431.6548    
    572000   299.99302     -1.325446e+08   1087.4073      1431.6691    
    573000   300.01369     -1.325446e+08   1087.8068      1431.6833    
    574000   300.08508     -1.3254476e+08  1091.3253      1431.6976    
    575000   300.03555     -1.325448e+08   1078.3595      1431.7118    
    576000   299.98533     -1.3254477e+08  1063.8249      1431.7261    
    577000   299.97023     -1.325448e+08   1060.0158      1431.7403    
    578000   299.92663     -1.325449e+08   1062.4798      1431.7545    
    579000   299.98488     -1.3254466e+08  1078.4667      1431.7688    
    580000   299.96829     -1.3254466e+08  1071.5813      1431.783     
    581000   300.011       -1.3254491e+08  1066.3865      1431.7973    
    582000   299.95862     -1.3254485e+08  1054.7961      1431.8115    
    583000   300.00459     -1.3254474e+08  1051.9321      1431.8257    
    584000   299.99678     -1.3254501e+08  1043.3695      1431.84      
    585000   299.93418     -1.3254466e+08  1047.1268      1431.8542    
    586000   300.0303      -1.3254493e+08  1048.1764      1431.8685    
    587000   299.96103     -1.3254481e+08  1039.2577      1431.8827    
    588000   299.96664     -1.3254502e+08  1044.7977      1431.897     
    589000   299.9638      -1.3254477e+08  1031.1912      1431.9112    
    590000   299.97154     -1.3254463e+08  1039.1402      1431.9254    
    591000   300.04288     -1.3254478e+08  1035.8209      1431.9397    
    592000   299.9565      -1.3254436e+08  1032.9561      1431.9539    
    593000   300.02058     -1.3254438e+08  1022.55        1431.9682    
    594000   300.00058     -1.3254429e+08  1012.9781      1431.9824    
    595000   300.01453     -1.3254465e+08  1012.7394      1431.9967    
    596000   300.02385     -1.3254456e+08  1021.8556      1432.0109    
    597000   300.033       -1.3254464e+08  1023.1999      1432.0251    
    598000   300.00948     -1.3254449e+08  1014.0985      1432.0394    
    599000   299.97897     -1.3254445e+08  1007.0842      1432.0536    
    600000   299.98034     -1.325443e+08   998.1017       1432.0679    
    601000   300.02327     -1.3254405e+08  993.59255      1432.0821    
    602000   300.15352     -1.3254436e+08  997.8632       1432.0964    
    603000   300.04352     -1.3254403e+08  997.84085      1432.1106    
    604000   300.01855     -1.325443e+08   995.69279      1432.1248    
    605000   300.01504     -1.3254438e+08  999.61409      1432.1391    
    606000   300.00628     -1.3254435e+08  990.13831      1432.1533    
    607000   299.99908     -1.325442e+08   980.67431      1432.1676    
    608000   299.95625     -1.3254413e+08  983.48406      1432.1818    
    609000   300.03264     -1.3254445e+08  982.78815      1432.1961    
    610000   300.02146     -1.325439e+08   983.28429      1432.2103    
    611000   300.04326     -1.3254398e+08  981.08524      1432.2245    
    612000   300.0449      -1.3254433e+08  978.14927      1432.2388    
    613000   300.03728     -1.3254427e+08  974.2162       1432.253     
    614000   299.94946     -1.3254403e+08  960.47625      1432.2673    
    615000   299.98822     -1.3254419e+08  960.65322      1432.2815    
    616000   299.89551     -1.325439e+08   950.36666      1432.2957    
    617000   300.02097     -1.3254421e+08  967.26445      1432.31      
    618000   299.97966     -1.325439e+08   954.82883      1432.3242    
    619000   300.00543     -1.3254387e+08  961.74093      1432.3385    
    620000   299.95811     -1.3254396e+08  949.58083      1432.3527    
    621000   300.01298     -1.3254384e+08  941.48764      1432.367     
    622000   300.00157     -1.32544e+08    934.40089      1432.3812    
    623000   300.039       -1.3254402e+08  935.90813      1432.3954    
    624000   299.94818     -1.3254378e+08  942.68416      1432.4097    
    625000   300.01642     -1.3254425e+08  942.01229      1432.4239    
    626000   299.99221     -1.3254411e+08  937.48396      1432.4382    
    627000   299.95777     -1.3254371e+08  929.13063      1432.4524    
    628000   299.94633     -1.3254374e+08  920.47447      1432.4667    
    629000   299.99301     -1.3254372e+08  917.14033      1432.4809    
    630000   300.02878     -1.3254366e+08  918.47927      1432.4951    
    631000   300.00912     -1.3254346e+08  934.12627      1432.5094    
    632000   300.05999     -1.3254363e+08  934.3131       1432.5236    
    633000   300.06358     -1.3254387e+08  921.9488       1432.5379    
    634000   300.0172      -1.3254384e+08  918.07791      1432.5521    
    635000   299.96272     -1.325433e+08   916.59809      1432.5664    
    636000   300.01545     -1.3254371e+08  907.28476      1432.5806    
    637000   299.99242     -1.3254341e+08  908.98083      1432.5948    
    638000   300.04353     -1.3254365e+08  910.73459      1432.6091    
    639000   299.99905     -1.3254356e+08  912.3912       1432.6233    
    640000   299.99721     -1.3254375e+08  906.81692      1432.6376    
    641000   299.94119     -1.325433e+08   896.03789      1432.6518    
    642000   300.01112     -1.3254337e+08  892.82549      1432.666     
    643000   300.03807     -1.3254361e+08  895.9147       1432.6803    
    644000   300.00185     -1.3254349e+08  898.52472      1432.6945    
    645000   300.04741     -1.3254352e+08  894.89187      1432.7088    
    646000   299.95296     -1.3254327e+08  874.97154      1432.723     
    647000   299.9881      -1.3254351e+08  871.28853      1432.7373    
    648000   299.99192     -1.3254352e+08  863.25622      1432.7515    
    649000   299.98565     -1.3254345e+08  881.60036      1432.7657    
    650000   299.96774     -1.3254326e+08  875.06423      1432.78      
    651000   300.00635     -1.3254305e+08  877.03464      1432.7942    
    652000   300.00616     -1.3254325e+08  858.36737      1432.8085    
    653000   299.9871      -1.3254323e+08  853.60456      1432.8227    
    654000   300.01168     -1.3254354e+08  860.1268       1432.837     
    655000   300.03499     -1.3254357e+08  868.2217       1432.8512    
    656000   300.00831     -1.3254341e+08  864.94715      1432.8654    
    657000   299.98865     -1.3254318e+08  855.68834      1432.8797    
    658000   299.99243     -1.3254307e+08  849.48806      1432.8939    
    659000   299.91799     -1.3254275e+08  844.73763      1432.9082    
    660000   300.00422     -1.3254309e+08  854.6566       1432.9224    
    661000   299.9826      -1.3254317e+08  858.03998      1432.9367    
    662000   299.97366     -1.3254307e+08  846.27232      1432.9509    
    663000   299.94715     -1.3254321e+08  830.25894      1432.9651    
    664000   299.94955     -1.3254318e+08  824.23197      1432.9794    
    665000   299.95578     -1.3254324e+08  826.38376      1432.9936    
    666000   299.95514     -1.3254291e+08  830.86666      1433.0079    
    667000   299.99901     -1.3254285e+08  836.30117      1433.0221    
    668000   300.00601     -1.3254296e+08  839.45022      1433.0363    
    669000   300.02008     -1.3254305e+08  829.63518      1433.0506    
    670000   299.98497     -1.3254299e+08  818.67557      1433.0648    
    671000   299.94865     -1.3254263e+08  814.65023      1433.0791    
    672000   300.01726     -1.3254263e+08  822.949        1433.0933    
    673000   300.10773     -1.3254286e+08  814.0258       1433.1076    
    674000   299.98143     -1.3254253e+08  808.62637      1433.1218    
    675000   300.05509     -1.3254281e+08  805.03815      1433.136     
    676000   300.00361     -1.3254268e+08  797.95883      1433.1503    
    677000   299.97026     -1.3254279e+08  805.90138      1433.1645    
    678000   299.97583     -1.325427e+08   805.06826      1433.1788    
    679000   300.02723     -1.3254283e+08  800.96494      1433.193     
    680000   300.0117      -1.3254253e+08  790.99538      1433.2073    
    681000   300.04896     -1.325425e+08   785.95431      1433.2215    
    682000   299.98732     -1.3254226e+08  792.05065      1433.2357    
    683000   300.0703      -1.3254239e+08  792.07682      1433.25      
    684000   300.02723     -1.3254247e+08  784.56005      1433.2642    
    685000   300.01375     -1.3254271e+08  769.86206      1433.2785    
    686000   299.94624     -1.3254235e+08  766.44812      1433.2927    
    687000   299.98434     -1.3254223e+08  773.66255      1433.307     
    688000   300.05671     -1.325428e+08   773.82344      1433.3212    
    689000   300.01058     -1.325424e+08   783.14024      1433.3354    
    690000   299.99385     -1.3254245e+08  780.66722      1433.3497    
    691000   299.93588     -1.3254257e+08  767.15377      1433.3639    
    692000   299.89703     -1.3254215e+08  755.41531      1433.3782    
    693000   299.9942      -1.325422e+08   753.09166      1433.3924    
    694000   300.00092     -1.3254221e+08  756.97631      1433.4067    
    695000   299.97227     -1.3254233e+08  754.56547      1433.4209    
    696000   299.9985      -1.325422e+08   751.61984      1433.4351    
    697000   299.97522     -1.3254237e+08  743.93088      1433.4494    
    698000   299.94157     -1.3254222e+08  738.70015      1433.4636    
    699000   299.96499     -1.3254227e+08  738.3228       1433.4779    
    700000   300.0047      -1.3254241e+08  738.98733      1433.4921    
    701000   299.98912     -1.325424e+08   741.37518      1433.5063    
    702000   299.96541     -1.3254228e+08  741.05774      1433.5206    
    703000   299.97143     -1.3254204e+08  734.57131      1433.5348    
    704000   300.0249      -1.3254246e+08  726.20666      1433.5491    
    705000   299.91093     -1.3254221e+08  723.59853      1433.5633    
    706000   299.99997     -1.3254217e+08  723.31074      1433.5776    
    707000   299.99445     -1.3254205e+08  720.59347      1433.5918    
    708000   300.01482     -1.3254204e+08  718.96993      1433.606     
    709000   300.01658     -1.3254181e+08  712.55377      1433.6203    
    710000   300.03329     -1.3254178e+08  714.55807      1433.6345    
    711000   300.10156     -1.3254209e+08  691.8559       1433.6488    
    712000   300.07823     -1.3254213e+08  693.29193      1433.663     
    713000   299.98005     -1.3254177e+08  702.14511      1433.6773    
    714000   300.06302     -1.3254156e+08  714.25487      1433.6915    
    715000   300.01518     -1.325416e+08   709.94299      1433.7057    
    716000   300.00819     -1.3254185e+08  701.37098      1433.72      
    717000   299.95794     -1.3254185e+08  685.44471      1433.7342    
    718000   299.95904     -1.3254162e+08  677.91113      1433.7485    
    719000   299.92543     -1.3254183e+08  679.37761      1433.7627    
    720000   299.94595     -1.3254177e+08  684.98453      1433.777     
    721000   299.9374      -1.3254151e+08  686.57417      1433.7912    
    722000   300.02195     -1.3254164e+08  684.01947      1433.8054    
    723000   299.95287     -1.3254171e+08  681.28883      1433.8197    
    724000   299.98016     -1.3254171e+08  672.4173       1433.8339    
    725000   300.0052      -1.3254186e+08  668.94021      1433.8482    
    726000   299.99972     -1.3254165e+08  664.8516       1433.8624    
    727000   299.96568     -1.3254158e+08  669.13509      1433.8766    
    728000   299.95968     -1.3254127e+08  665.30793      1433.8909    
    729000   299.95134     -1.3254165e+08  660.43046      1433.9051    
    730000   299.98793     -1.325416e+08   655.67586      1433.9194    
    731000   300.03825     -1.3254158e+08  654.16051      1433.9336    
    732000   299.96586     -1.3254096e+08  654.53185      1433.9479    
    733000   300.00572     -1.3254127e+08  657.99548      1433.9621    
    734000   300.0033      -1.3254132e+08  654.58161      1433.9763    
    735000   299.94103     -1.3254134e+08  645.73476      1433.9906    
    736000   299.96463     -1.3254151e+08  641.90101      1434.0048    
    737000   300.0024      -1.3254127e+08  637.99186      1434.0191    
    738000   299.95823     -1.3254095e+08  635.21389      1434.0333    
    739000   300.07139     -1.325414e+08   629.24229      1434.0476    
    740000   300.05245     -1.3254121e+08  632.65766      1434.0618    
    741000   300.07035     -1.3254144e+08  629.31755      1434.076     
    742000   300.00736     -1.3254121e+08  621.47664      1434.0903    
    743000   299.94432     -1.3254126e+08  624.06972      1434.1045    
    744000   299.93245     -1.3254141e+08  625.69921      1434.1188    
    745000   299.91846     -1.3254123e+08  629.12822      1434.133     
    746000   299.93872     -1.3254109e+08  615.26894      1434.1473    
    747000   300.00859     -1.3254116e+08  616.33846      1434.1615    
    748000   300.01712     -1.3254112e+08  602.22987      1434.1757    
    749000   299.95123     -1.3254077e+08  609.67345      1434.19      
    750000   299.95044     -1.3254094e+08  601.32998      1434.2042    
    751000   299.99725     -1.3254124e+08  608.65692      1434.2185    
    752000   299.98791     -1.3254085e+08  597.16308      1434.2327    
    753000   300.00774     -1.3254093e+08  596.47727      1434.2469    
    754000   299.99408     -1.3254081e+08  591.87185      1434.2612    
    755000   300.03845     -1.3254076e+08  590.30145      1434.2754    
    756000   299.9614      -1.3254061e+08  595.86165      1434.2897    
    757000   300.00081     -1.3254081e+08  593.12843      1434.3039    
    758000   300.02909     -1.3254092e+08  591.45877      1434.3182    
    759000   299.99541     -1.3254058e+08  583.16333      1434.3324    
    760000   300.03739     -1.3254055e+08  581.97845      1434.3466    
    761000   300.03154     -1.3254073e+08  576.82077      1434.3609    
    762000   300.04472     -1.3254101e+08  573.37218      1434.3751    
    763000   299.98036     -1.3254081e+08  565.55235      1434.3894    
    764000   299.89728     -1.325409e+08   557.265        1434.4036    
    765000   299.89242     -1.3254093e+08  562.83497      1434.4179    
    766000   299.9621      -1.3254093e+08  570.45721      1434.4321    
    767000   299.92445     -1.3254081e+08  565.47957      1434.4463    
    768000   299.91072     -1.3254062e+08  568.10738      1434.4606    
    769000   299.96204     -1.3254074e+08  553.77267      1434.4748    
    770000   299.91441     -1.3254037e+08  551.89319      1434.4891    
    771000   299.93659     -1.3254033e+08  551.3408       1434.5033    
    772000   299.93362     -1.3254001e+08  561.21801      1434.5176    
    773000   300.04836     -1.3254007e+08  555.62032      1434.5318    
    774000   300.05823     -1.3254024e+08  550.24855      1434.546     
    775000   300.01999     -1.3254006e+08  542.66086      1434.5603    
    776000   300.02596     -1.3254013e+08  537.98931      1434.5745    
    777000   300.05149     -1.3254017e+08  535.11558      1434.5888    
    778000   300.00959     -1.3254008e+08  534.02946      1434.603     
    779000   300.05612     -1.325402e+08   533.37869      1434.6172    
    780000   300.01882     -1.3254017e+08  526.24608      1434.6315    
    781000   299.99743     -1.3254005e+08  519.10414      1434.6457    
    782000   299.9726      -1.3253985e+08  514.01054      1434.66      
    783000   300.02976     -1.3253997e+08  519.94642      1434.6742    
    784000   300.07103     -1.3254006e+08  512.98159      1434.6885    
    785000   300.01142     -1.3253979e+08  516.69047      1434.7027    
    786000   300.0399      -1.3254e+08     514.26825      1434.7169    
    787000   300.0613      -1.3254015e+08  499.36622      1434.7312    
    788000   300.04718     -1.3254005e+08  494.93655      1434.7454    
    789000   300.08044     -1.3253963e+08  498.50221      1434.7597    
    790000   300.08424     -1.3253938e+08  505.85421      1434.7739    
    791000   300.07132     -1.325397e+08   500.87576      1434.7882    
    792000   299.96399     -1.3253929e+08  504.25887      1434.8024    
    793000   300.00505     -1.3253954e+08  492.51952      1434.8166    
    794000   300.0714      -1.3253954e+08  496.10777      1434.8309    
    795000   300.06359     -1.3253965e+08  488.67536      1434.8451    
    796000   300.03633     -1.3253972e+08  489.79475      1434.8594    
    797000   300.01202     -1.325397e+08   485.49357      1434.8736    
    798000   299.98626     -1.3253933e+08  484.82337      1434.8879    
    799000   300.05115     -1.3253975e+08  477.3379       1434.9021    
    800000   300.02788     -1.3253961e+08  477.50087      1434.9163    
    801000   300.00642     -1.325398e+08   464.35377      1434.9306    
    802000   299.98015     -1.3253978e+08  465.30664      1434.9448    
    803000   299.95778     -1.3253948e+08  460.86596      1434.9591    
    804000   300.01278     -1.3253942e+08  462.97383      1434.9733    
    805000   299.97318     -1.3253941e+08  453.72864      1434.9876    
    806000   299.95988     -1.3253929e+08  454.55224      1435.0018    
    807000   299.96188     -1.3253942e+08  457.64873      1435.016     
    808000   300.01287     -1.3253931e+08  459.3853       1435.0303    
    809000   300.0369      -1.3253948e+08  463.44415      1435.0445    
    810000   300.02556     -1.3253948e+08  461.95283      1435.0588    
    811000   300.05988     -1.3253943e+08  448.73405      1435.073     
    812000   300.00901     -1.3253953e+08  438.22469      1435.0872    
    813000   299.94837     -1.3253896e+08  439.42085      1435.1015    
    814000   300.05982     -1.3253919e+08  439.82957      1435.1157    
    815000   300.01792     -1.3253903e+08  441.99138      1435.13      
    816000   300.04649     -1.3253892e+08  431.74708      1435.1442    
    817000   300.03782     -1.3253892e+08  426.4214       1435.1585    
    818000   300.03608     -1.3253871e+08  431.98062      1435.1727    
    819000   300.0737      -1.3253904e+08  429.2645       1435.1869    
    820000   300.05867     -1.3253908e+08  424.36238      1435.2012    
    821000   300.01087     -1.3253897e+08  423.39631      1435.2154    
    822000   299.94136     -1.3253889e+08  422.69997      1435.2297    
    823000   299.93936     -1.3253899e+08  424.19817      1435.2439    
    824000   299.9546      -1.3253862e+08  430.5293       1435.2582    
    825000   299.9565      -1.3253884e+08  415.91431      1435.2724    
    826000   300.03971     -1.3253893e+08  403.93237      1435.2866    
    827000   299.9743      -1.3253903e+08  396.20497      1435.3009    
    828000   299.98663     -1.3253904e+08  395.82006      1435.3151    
    829000   299.97212     -1.3253883e+08  403.54184      1435.3294    
    830000   300.08929     -1.3253901e+08  402.48458      1435.3436    
    831000   300.00134     -1.3253867e+08  394.36329      1435.3579    
    832000   300.06924     -1.3253876e+08  382.70133      1435.3721    
    833000   299.97779     -1.3253882e+08  384.1244       1435.3863    
    834000   300.02499     -1.3253858e+08  390.05625      1435.4006    
    835000   299.97194     -1.3253837e+08  380.65881      1435.4148    
    836000   300.04407     -1.3253869e+08  379.64689      1435.4291    
    837000   300.02776     -1.3253853e+08  371.86629      1435.4433    
    838000   300.01392     -1.3253871e+08  377.1249       1435.4575    
    839000   299.90934     -1.3253861e+08  367.51635      1435.4718    
    840000   299.98323     -1.325385e+08   371.74941      1435.486     
    841000   299.97467     -1.3253854e+08  372.68465      1435.5003    
    842000   300.03953     -1.3253852e+08  376.07136      1435.5145    
    843000   299.99367     -1.3253782e+08  368.53483      1435.5288    
    844000   300.12103     -1.3253861e+08  354.76697      1435.543     
    845000   300.00837     -1.325381e+08   350.36469      1435.5572    
    846000   299.96171     -1.3253837e+08  348.54813      1435.5715    
    847000   299.95128     -1.325383e+08   345.91548      1435.5857    
    848000   299.91739     -1.3253822e+08  346.61944      1435.6       
    849000   299.94279     -1.3253824e+08  350.58627      1435.6142    
    850000   300.01663     -1.3253847e+08  355.19979      1435.6285    
    851000   299.93267     -1.3253825e+08  348.83072      1435.6427    
    852000   299.96424     -1.3253863e+08  336.45926      1435.6569    
    853000   299.9056      -1.3253839e+08  326.35819      1435.6712    
    854000   299.95193     -1.325381e+08   327.91779      1435.6854    
    855000   300.0012      -1.3253811e+08  336.53113      1435.6997    
    856000   300.01865     -1.3253806e+08  335.68526      1435.7139    
    857000   300.03463     -1.3253789e+08  338.10035      1435.7282    
    858000   300.01472     -1.325379e+08   326.56222      1435.7424    
    859000   300.0078      -1.3253792e+08  324.94759      1435.7566    
    860000   300.00974     -1.325383e+08   321.64883      1435.7709    
    861000   299.97753     -1.32538e+08    325.93208      1435.7851    
    862000   300.00107     -1.3253799e+08  310.47831      1435.7994    
    863000   299.98045     -1.3253794e+08  307.15047      1435.8136    
    864000   299.98215     -1.3253814e+08  302.11745      1435.8278    
    865000   299.97016     -1.3253802e+08  307.86018      1435.8421    
    866000   299.91887     -1.3253774e+08  307.24521      1435.8563    
    867000   299.98734     -1.3253817e+08  299.90948      1435.8706    
    868000   299.98966     -1.3253789e+08  298.05439      1435.8848    
    869000   299.90576     -1.3253776e+08  291.89459      1435.8991    
    870000   299.9501      -1.3253788e+08  279.21749      1435.9133    
    871000   300.00525     -1.3253813e+08  284.89973      1435.9275    
    872000   299.96277     -1.3253769e+08  281.07766      1435.9418    
    873000   299.98289     -1.3253767e+08  288.28432      1435.956     
    874000   299.98771     -1.3253761e+08  278.53699      1435.9703    
    875000   300.04963     -1.3253736e+08  282.62521      1435.9845    
    876000   300.01689     -1.3253708e+08  275.00378      1435.9988    
    877000   300.00466     -1.3253756e+08  269.63714      1436.013     
    878000   299.97088     -1.3253716e+08  263.78006      1436.0272    
    879000   300.02276     -1.325375e+08   265.92198      1436.0415    
    880000   300.01005     -1.3253754e+08  267.33657      1436.0557    
    881000   300.01706     -1.3253715e+08  265.35037      1436.07      
    882000   299.98373     -1.3253731e+08  259.6144       1436.0842    
    883000   299.99121     -1.3253737e+08  249.52997      1436.0985    
    884000   299.91706     -1.3253735e+08  253.70717      1436.1127    
    885000   300.00354     -1.3253732e+08  256.76342      1436.1269    
    886000   299.97919     -1.3253722e+08  246.50327      1436.1412    
    887000   299.95748     -1.3253701e+08  246.57949      1436.1554    
    888000   300.01562     -1.325373e+08   240.5461       1436.1697    
    889000   300.02646     -1.3253724e+08  242.02926      1436.1839    
    890000   300.00792     -1.3253709e+08  235.84689      1436.1982    
    891000   300.03492     -1.3253694e+08  243.90671      1436.2124    
    892000   300.02458     -1.3253691e+08  233.83178      1436.2266    
    893000   300.00887     -1.3253686e+08  232.14076      1436.2409    
    894000   300.01937     -1.3253665e+08  235.25703      1436.2551    
    895000   300.04529     -1.3253676e+08  228.37047      1436.2694    
    896000   300.02907     -1.3253661e+08  226.80581      1436.2836    
    897000   300.01177     -1.3253658e+08  224.70844      1436.2978    
    898000   299.97823     -1.3253631e+08  209.95303      1436.3121    
    899000   300.06219     -1.3253671e+08  216.07298      1436.3263    
    900000   299.9892      -1.3253664e+08  209.29522      1436.3406    
    901000   299.97571     -1.3253682e+08  213.11835      1436.3548    
    902000   299.92997     -1.325367e+08   204.45132      1436.3691    
    903000   299.96749     -1.325371e+08   203.25068      1436.3833    
    904000   299.96901     -1.3253697e+08  203.09753      1436.3975    
    905000   299.93573     -1.3253664e+08  203.21226      1436.4118    
    906000   300.00529     -1.3253684e+08  199.46629      1436.426     
    907000   299.9408      -1.3253649e+08  201.23099      1436.4403    
    908000   299.9891      -1.3253678e+08  189.34981      1436.4545    
    909000   299.99309     -1.3253656e+08  187.44666      1436.4688    
    910000   299.94708     -1.3253628e+08  181.99267      1436.483     
    911000   300.02445     -1.3253652e+08  181.56973      1436.4972    
    912000   300.00734     -1.3253653e+08  179.67372      1436.5115    
    913000   299.9175      -1.3253638e+08  179.86117      1436.5257    
    914000   299.97722     -1.3253661e+08  184.8721       1436.54      
    915000   299.97329     -1.3253643e+08  181.07297      1436.5542    
    916000   299.95258     -1.3253663e+08  171.88839      1436.5685    
    917000   299.91675     -1.325366e+08   154.78392      1436.5827    
    918000   299.94835     -1.3253655e+08  153.18211      1436.5969    
    919000   299.93595     -1.3253617e+08  153.09106      1436.6112    
    920000   299.98158     -1.3253635e+08  161.53965      1436.6254    
    921000   299.93999     -1.3253592e+08  164.3811       1436.6397    
    922000   300.01885     -1.3253624e+08  168.85727      1436.6539    
    923000   300.04599     -1.3253645e+08  168.60589      1436.6681    
    924000   300.02486     -1.3253628e+08  161.45537      1436.6824    
    925000   299.97837     -1.3253607e+08  140.5576       1436.6966    
    926000   299.95886     -1.3253579e+08  131.34533      1436.7109    
    927000   300.0011      -1.325359e+08   126.33166      1436.7251    
    928000   300.06092     -1.3253604e+08  133.5023       1436.7394    
    929000   299.98584     -1.3253581e+08  147.93248      1436.7536    
    930000   299.95255     -1.3253573e+08  138.10229      1436.7678    
    931000   300.03008     -1.325362e+08   136.16768      1436.7821    
    932000   299.96358     -1.3253574e+08  128.28331      1436.7963    
    933000   300.00265     -1.3253584e+08  118.4228       1436.8106    
    934000   299.94392     -1.3253555e+08  114.46259      1436.8248    
    935000   299.99702     -1.3253576e+08  126.57021      1436.8391    
    936000   299.96793     -1.3253601e+08  118.94585      1436.8533    
    937000   300.01856     -1.3253575e+08  121.28452      1436.8675    
    938000   300.05106     -1.3253552e+08  114.08279      1436.8818    
    939000   300.03551     -1.3253531e+08  103.53388      1436.896     
    940000   300.11299     -1.325357e+08   105.5117       1436.9103    
    941000   300.01057     -1.3253541e+08  102.12663      1436.9245    
    942000   300.01149     -1.3253545e+08  111.22595      1436.9388    
    943000   299.99148     -1.3253548e+08  105.95637      1436.953     
    944000   299.94229     -1.3253532e+08  102.93094      1436.9672    
    945000   299.98636     -1.3253557e+08  93.144542      1436.9815    
    946000   299.99056     -1.3253551e+08  86.626007      1436.9957    
    947000   299.9518      -1.3253533e+08  90.438306      1437.01      
    948000   300.00885     -1.3253568e+08  86.89302       1437.0242    
    949000   299.92831     -1.3253516e+08  87.497928      1437.0384    
    950000   300.00328     -1.3253515e+08  80.11692       1437.0527    
    951000   300.01955     -1.3253514e+08  76.561368      1437.0669    
    952000   300.0308      -1.3253517e+08  74.222471      1437.0812    
    953000   300.00877     -1.3253493e+08  69.626689      1437.0954    
    954000   300.04612     -1.32535e+08    75.090712      1437.1097    
    955000   300.02158     -1.3253518e+08  68.994715      1437.1239    
    956000   299.98129     -1.3253494e+08  74.810163      1437.1381    
    957000   299.99765     -1.3253486e+08  63.869232      1437.1524    
    958000   299.96929     -1.3253501e+08  63.96189       1437.1666    
    959000   299.97291     -1.3253474e+08  60.02195       1437.1809    
    960000   300.031       -1.3253479e+08  62.151741      1437.1951    
    961000   300.05515     -1.3253468e+08  54.272092      1437.2094    
    962000   300.05668     -1.3253489e+08  53.651366      1437.2236    
    963000   300.02892     -1.3253491e+08  41.831365      1437.2378    
    964000   299.97192     -1.3253454e+08  42.515384      1437.2521    
    965000   299.98178     -1.3253463e+08  46.739952      1437.2663    
    966000   300.06        -1.3253488e+08  42.64987       1437.2806    
    967000   299.99349     -1.3253462e+08  38.883871      1437.2948    
    968000   299.98153     -1.3253472e+08  34.176723      1437.3091    
    969000   299.98033     -1.3253441e+08  31.368814      1437.3233    
    970000   299.95802     -1.3253465e+08  29.614481      1437.3375    
    971000   300.08147     -1.3253486e+08  34.356189      1437.3518    
    972000   300.03885     -1.3253462e+08  36.841227      1437.366     
    973000   299.98832     -1.3253444e+08  33.485242      1437.3803    
    974000   300.06708     -1.3253478e+08  24.536872      1437.3945    
    975000   299.98164     -1.3253423e+08  20.709441      1437.4087    
    976000   300.03884     -1.3253421e+08  13.434232      1437.423     
    977000   300.06305     -1.3253443e+08  11.326494      1437.4372    
    978000   299.99861     -1.3253411e+08  13.094882      1437.4515    
    979000   300.01751     -1.3253427e+08  15.665155      1437.4657    
    980000   299.99617     -1.3253424e+08  5.6500666      1437.48      
    981000   300.01581     -1.3253423e+08  0.34741054     1437.4942    
    982000   300.02298     -1.3253434e+08 -7.1617893      1437.5084    
    983000   299.96388     -1.3253411e+08  3.8529263      1437.5227    
    984000   300.00043     -1.3253424e+08  1.917723       1437.5369    
    985000   300.03667     -1.3253387e+08 -1.8720373      1437.5512    
    986000   300.00722     -1.3253389e+08 -17.045156      1437.5654    
    987000   299.99497     -1.3253415e+08 -19.959552      1437.5797    
    988000   300.02416     -1.3253389e+08 -10.671014      1437.5939    
    989000   300.11895     -1.3253419e+08 -7.208289       1437.6081    
    990000   300.01288     -1.325335e+08  -10.812809      1437.6224    
    991000   300.11018     -1.3253383e+08 -20.880128      1437.6366    
    992000   300.05093     -1.325338e+08  -18.297708      1437.6509    
    993000   300.06047     -1.3253379e+08 -23.833369      1437.6651    
    994000   300.00192     -1.3253382e+08 -27.380747      1437.6794    
    995000   300.01867     -1.3253359e+08 -35.330309      1437.6936    
    996000   300.07271     -1.3253376e+08 -35.530452      1437.7078    
    997000   299.99017     -1.3253333e+08 -35.116524      1437.7221    
    998000   300.00688     -1.3253371e+08 -38.712722      1437.7363    
    999000   299.99024     -1.3253319e+08 -45.069287      1437.7506    
   1000000   299.99054     -1.3253342e+08 -50.871274      1437.7648    
   1001000   299.98036     -1.3253328e+08 -54.156866      1437.7791    
   1002000   299.99505     -1.3253327e+08 -49.545062      1437.7933    
   1003000   299.98282     -1.3253359e+08 -48.270565      1437.8075    
   1004000   299.95822     -1.325336e+08  -49.370445      1437.8218    
   1005000   299.96316     -1.3253375e+08 -57.781763      1437.836     
   1006000   299.98797     -1.3253342e+08 -50.238271      1437.8503    
   1007000   299.99901     -1.3253327e+08 -65.838441      1437.8645    
   1008000   300.00754     -1.3253314e+08 -69.039401      1437.8787    
   1009000   299.99759     -1.3253325e+08 -76.437682      1437.893     
   1010000   300.02619     -1.3253343e+08 -75.789177      1437.9072    
   1011000   300.01132     -1.3253324e+08 -67.043433      1437.9215    
   1012000   300.00621     -1.3253339e+08 -74.036835      1437.9357    
   1013000   300.01397     -1.3253319e+08 -80.311717      1437.95      
   1014000   300.00822     -1.3253289e+08 -86.182027      1437.9642    
   1015000   300.05853     -1.3253305e+08 -83.442714      1437.9784    
   1016000   300.04192     -1.3253308e+08 -76.069452      1437.9927    
   1017000   300.06957     -1.3253316e+08 -79.913678      1438.0069    
   1018000   300.06137     -1.3253322e+08 -93.831839      1438.0212    
   1019000   299.9494      -1.3253261e+08 -109.55035      1438.0354    
   1020000   299.98909     -1.3253283e+08 -104.00291      1438.0497    
   1021000   300.03852     -1.3253307e+08 -101.126        1438.0639    
   1022000   300.05083     -1.3253302e+08 -93.673965      1438.0781    
   1023000   300.01841     -1.3253286e+08 -100.45544      1438.0924    
   1024000   299.98457     -1.3253265e+08 -105.19637      1438.1066    
   1025000   299.99728     -1.3253272e+08 -101.13498      1438.1209    
   1026000   300.03251     -1.3253261e+08 -105.1905       1438.1351    
   1027000   300.00299     -1.325326e+08  -116.80349      1438.1494    
   1028000   300.0029      -1.3253244e+08 -110.89618      1438.1636    
   1029000   299.95288     -1.3253278e+08 -118.00272      1438.1778    
   1030000   299.98889     -1.3253266e+08 -114.24023      1438.1921    
   1031000   299.95701     -1.3253245e+08 -116.73659      1438.2063    
   1032000   300.02346     -1.3253256e+08 -128.09371      1438.2206    
   1033000   300.02662     -1.3253252e+08 -133.88017      1438.2348    
   1034000   300.04212     -1.3253231e+08 -132.45529      1438.249     
   1035000   300.04799     -1.3253229e+08 -129.73661      1438.2633    
   1036000   300.04361     -1.325325e+08  -133.96443      1438.2775    
[...]
   4019000   299.98703     -1.3230803e+08 -6289.3291      1480.7625    
   4020000   299.95345     -1.3230812e+08 -6297.3058      1480.7767    
   4021000   299.90623     -1.3230793e+08 -6291.5098      1480.7909    
   4022000   299.96912     -1.3230795e+08 -6295.6887      1480.8052    
   4023000   300.00261     -1.3230777e+08 -6289.1377      1480.8194    
   4024000   299.99145     -1.3230772e+08 -6293.8422      1480.8337    
   4025000   300.01592     -1.3230765e+08 -6298.8635      1480.8479    
   4026000   300.03713     -1.3230765e+08 -6303.3921      1480.8621    
   4027000   299.95949     -1.3230743e+08 -6306.3338      1480.8764    
   4028000   300.0161      -1.3230693e+08 -6300.0398      1480.8906    
   4029000   299.98546     -1.3230684e+08 -6298.3869      1480.9049    
   4030000   299.92627     -1.3230712e+08 -6308.4515      1480.9191    
   4031000   299.9345      -1.3230705e+08 -6313.5718      1480.9334    
   4032000   299.91485     -1.3230672e+08 -6310.7246      1480.9476    
   4033000   299.95475     -1.3230687e+08 -6309.5772      1480.9618    
   4034000   299.97808     -1.3230631e+08 -6306.3854      1480.9761    
   4035000   300.0005      -1.3230655e+08 -6310.2503      1480.9903    
   4036000   300.01475     -1.323062e+08  -6307.4823      1481.0046    
   4037000   299.99167     -1.3230602e+08 -6317.5182      1481.0188    
   4038000   299.98985     -1.3230571e+08 -6321.3311      1481.0331    
   4039000   300.0138      -1.3230588e+08 -6325.8358      1481.0473    
   4040000   299.98219     -1.3230572e+08 -6312.4238      1481.0615    
   4041000   299.91773     -1.3230562e+08 -6321.9736      1481.0758    
   4042000   299.96556     -1.3230565e+08 -6324.3948      1481.09      
   4043000   299.99769     -1.3230543e+08 -6331.5586      1481.1043    
   4044000   299.98256     -1.3230528e+08 -6328.3808      1481.1185    
   4045000   299.97969     -1.3230535e+08 -6335.6029      1481.1328    
   4046000   299.98181     -1.3230549e+08 -6325.9841      1481.147     
   4047000   299.98788     -1.3230516e+08 -6329.2914      1481.1612    
   4048000   300.03141     -1.323049e+08  -6330.0019      1481.1755    
   4049000   299.97113     -1.3230455e+08 -6336.9767      1481.1897    
   4050000   300.01203     -1.3230446e+08 -6334.0054      1481.204     
   4051000   300.0163      -1.323046e+08  -6335.5313      1481.2182    
   4052000   299.98556     -1.3230445e+08 -6340.3221      1481.2324    
   4053000   300.02831     -1.3230478e+08 -6348.6891      1481.2467    
   4054000   299.95458     -1.3230435e+08 -6345.1811      1481.2609    
   4055000   299.96253     -1.3230424e+08 -6335.7219      1481.2752    
   4056000   299.97614     -1.3230418e+08 -6335.0684      1481.2894    
   4057000   299.88773     -1.3230388e+08 -6336.6777      1481.3037    
   4058000   299.93375     -1.3230394e+08 -6350.7633      1481.3179    
   4059000   299.94508     -1.3230393e+08 -6349.5115      1481.3321    
   4060000   299.99877     -1.323038e+08  -6352.2609      1481.3464    
   4061000   300.04831     -1.3230378e+08 -6356.3833      1481.3606    
   4062000   300.01075     -1.3230349e+08 -6364.7008      1481.3749    
   4063000   300.00319     -1.3230322e+08 -6364.9582      1481.3891    
   4064000   299.97432     -1.3230296e+08 -6363.8156      1481.4034    
   4065000   300.04026     -1.3230316e+08 -6366.9522      1481.4176    
   4066000   299.96001     -1.3230302e+08 -6366.6543      1481.4318    
   4067000   300.01773     -1.3230302e+08 -6365.4067      1481.4461    
   4068000   300.07503     -1.3230304e+08 -6360.9066      1481.4603    
   4069000   299.99338     -1.3230273e+08 -6373.8735      1481.4746    
   4070000   300.01173     -1.3230274e+08 -6376.7766      1481.4888    
   4071000   300.03686     -1.3230293e+08 -6377.0044      1481.5031    
   4072000   299.99663     -1.3230235e+08 -6369.9478      1481.5173    
   4073000   299.98894     -1.3230219e+08 -6370.3217      1481.5315    
   4074000   299.97423     -1.3230206e+08 -6376.3577      1481.5458    
   4075000   299.95583     -1.3230182e+08 -6378.9361      1481.56      
   4076000   300.01486     -1.3230198e+08 -6378.2759      1481.5743    
   4077000   299.96581     -1.323018e+08  -6376.6031      1481.5885    
   4078000   300.01847     -1.3230186e+08 -6381.4675      1481.6027    
   4079000   299.97644     -1.3230145e+08 -6379.3942      1481.617     
   4080000   299.99209     -1.323016e+08  -6385.9945      1481.6312    
   4081000   300.00797     -1.323014e+08  -6380.9151      1481.6455    
   4082000   299.98453     -1.3230117e+08 -6380.8865      1481.6597    
   4083000   299.9608      -1.3230109e+08 -6387.9838      1481.674     
   4084000   299.96051     -1.3230098e+08 -6388.5827      1481.6882    
   4085000   300.00976     -1.3230107e+08 -6385.7268      1481.7024    
   4086000   299.95569     -1.3230032e+08 -6393.1281      1481.7167    
   4087000   299.98343     -1.3230043e+08 -6394.5902      1481.7309    
   4088000   299.96668     -1.3230039e+08 -6406.7353      1481.7452    
   4089000   299.94408     -1.3230006e+08 -6398.9923      1481.7594    
   4090000   299.97735     -1.3230023e+08 -6397.4014      1481.7737    
   4091000   299.95853     -1.3230016e+08 -6393.9062      1481.7879    
   4092000   299.97006     -1.3230029e+08 -6403.3605      1481.8021    
   4093000   299.95657     -1.3230028e+08 -6409.6465      1481.8164    
   4094000   299.98679     -1.3229992e+08 -6416.7112      1481.8306    
   4095000   300.0207      -1.3229992e+08 -6413.3522      1481.8449    
   4096000   300.03009     -1.3229964e+08 -6404.8789      1481.8591    
   4097000   299.9718      -1.322995e+08  -6412.4997      1481.8734    
   4098000   299.90957     -1.322993e+08  -6413.3801      1481.8876    
   4099000   299.97559     -1.3229939e+08 -6418.4089      1481.9018    
   4100000   299.99163     -1.3229926e+08 -6411.0687      1481.9161    
   4101000   299.97868     -1.3229913e+08 -6408.0788      1481.9303    
   4102000   299.91019     -1.3229879e+08 -6408.9339      1481.9446    
   4103000   299.99844     -1.3229907e+08 -6424.2432      1481.9588    
   4104000   299.98938     -1.3229876e+08 -6433.8808      1481.973     
   4105000   299.98562     -1.3229857e+08 -6429.4485      1481.9873    
   4106000   299.99421     -1.322983e+08  -6421.3218      1482.0015    
   4107000   299.97696     -1.3229851e+08 -6417.0256      1482.0158    
   4108000   300.07625     -1.3229843e+08 -6411.8112      1482.03      
   4109000   300.03761     -1.3229824e+08 -6416.1043      1482.0443    
   4110000   300.00154     -1.3229823e+08 -6427.8659      1482.0585    
   4111000   299.94768     -1.3229802e+08 -6433.1495      1482.0727    
   4112000   300.01651     -1.3229818e+08 -6428.4176      1482.087     
   4113000   299.99429     -1.3229764e+08 -6435.1821      1482.1012    
   4114000   300.0141      -1.3229782e+08 -6435.6568      1482.1155    
   4115000   299.99527     -1.322978e+08  -6445.1086      1482.1297    
   4116000   299.99009     -1.3229755e+08 -6433.3444      1482.144     
   4117000   299.97879     -1.3229722e+08 -6440.5877      1482.1582    
   4118000   299.95809     -1.3229723e+08 -6443.107       1482.1724    
   4119000   300.00262     -1.3229721e+08 -6458.4484      1482.1867    
   4120000   300.07173     -1.3229698e+08 -6455.3262      1482.2009    
   4121000   299.99864     -1.3229653e+08 -6449.4057      1482.2152    
   4122000   300.00194     -1.3229661e+08 -6444.5119      1482.2294    
   4123000   299.96228     -1.322967e+08  -6456.6865      1482.2437    
   4124000   299.99382     -1.3229652e+08 -6451.2587      1482.2579    
   4125000   299.95822     -1.3229655e+08 -6460.0536      1482.2721    
   4126000   299.95737     -1.3229668e+08 -6451.4595      1482.2864    
   4127000   300.03341     -1.3229652e+08 -6455.7552      1482.3006    
   4128000   300.01255     -1.322964e+08  -6455.3157      1482.3149    
   4129000   299.99478     -1.3229604e+08 -6463.0535      1482.3291    
   4130000   299.95405     -1.3229606e+08 -6459.0461      1482.3434    
   4131000   299.98969     -1.3229578e+08 -6458.6718      1482.3576    
   4132000   299.98905     -1.3229565e+08 -6459.9376      1482.3718    
   4133000   299.93762     -1.322958e+08  -6468.2368      1482.3861    
   4134000   299.99578     -1.3229555e+08 -6469.9865      1482.4003    
   4135000   299.95689     -1.3229507e+08 -6472.3789      1482.4146    
   4136000   299.99875     -1.3229522e+08 -6470.8841      1482.4288    
   4137000   299.9769      -1.3229505e+08 -6466.6599      1482.443     
   4138000   299.93357     -1.3229468e+08 -6467.3699      1482.4573    
   4139000   299.92806     -1.3229454e+08 -6475.1027      1482.4715    
   4140000   299.98645     -1.322946e+08  -6482.6606      1482.4858    
   4141000   299.99028     -1.3229437e+08 -6482.5001      1482.5       
   4142000   300.0283      -1.3229406e+08 -6478.8731      1482.5143    
   4143000   300.05225     -1.3229401e+08 -6476.2886      1482.5285    
   4144000   300.04675     -1.3229411e+08 -6468.0257      1482.5427    
   4145000   300.06585     -1.3229429e+08 -6478.8712      1482.557     
   4146000   299.96528     -1.3229365e+08 -6489.4011      1482.5712    
   4147000   300.00365     -1.3229362e+08 -6484.6048      1482.5855    
   4148000   300.03612     -1.3229355e+08 -6492.148       1482.5997    
   4149000   300.0187      -1.3229338e+08 -6475.6306      1482.614     
   4150000   299.99808     -1.3229347e+08 -6483.1217      1482.6282    
   4151000   299.97375     -1.3229327e+08 -6488.0854      1482.6424    
   4152000   299.94551     -1.3229264e+08 -6487.6669      1482.6567    
   4153000   299.96794     -1.3229306e+08 -6487.1281      1482.6709    
   4154000   300.01747     -1.3229319e+08 -6488.9501      1482.6852    
   4155000   299.99763     -1.3229298e+08 -6482.8533      1482.6994    
   4156000   300.00887     -1.3229312e+08 -6500.142       1482.7137    
   4157000   300.0232      -1.3229288e+08 -6508.1612      1482.7279    
   4158000   299.92002     -1.3229283e+08 -6504.056       1482.7421    
   4159000   299.94783     -1.3229279e+08 -6504.1846      1482.7564    
   4160000   299.96234     -1.3229271e+08 -6498.3035      1482.7706    
   4161000   300.00695     -1.3229279e+08 -6496.5072      1482.7849    
   4162000   299.95112     -1.3229244e+08 -6502.2238      1482.7991    
   4163000   299.99298     -1.3229213e+08 -6506.673       1482.8133    
   4164000   300.01357     -1.32292e+08   -6514.9335      1482.8276    
   4165000   299.98071     -1.3229189e+08 -6514.1172      1482.8418    
   4166000   299.98938     -1.3229181e+08 -6524.2645      1482.8561    
   4167000   299.95183     -1.3229151e+08 -6525.879       1482.8703    
   4168000   299.92205     -1.3229113e+08 -6527.0706      1482.8846    
   4169000   299.95928     -1.3229122e+08 -6521.1349      1482.8988    
   4170000   300.05012     -1.3229122e+08 -6521.6756      1482.913     
   4171000   300.03238     -1.3229067e+08 -6522.9151      1482.9273    
   4172000   300.07986     -1.3229092e+08 -6521.2014      1482.9415    
   4173000   300.00506     -1.3229065e+08 -6526.8796      1482.9558    
   4174000   300.02818     -1.3229068e+08 -6526.8707      1482.97      
   4175000   300.00943     -1.3229061e+08 -6523.2941      1482.9843    
   4176000   300.0201      -1.3229058e+08 -6516.9205      1482.9985    
   4177000   300.02336     -1.3229059e+08 -6517.7381      1483.0127    
   4178000   299.92362     -1.3229034e+08 -6525.9797      1483.027     
   4179000   299.94507     -1.3229023e+08 -6536.5191      1483.0412    
   4180000   300.03416     -1.3229031e+08 -6538.5263      1483.0555    
   4181000   299.97269     -1.3228958e+08 -6531.9015      1483.0697    
   4182000   300.02427     -1.3228963e+08 -6531.7218      1483.084     
   4183000   300.03556     -1.3228964e+08 -6534.1028      1483.0982    
   4184000   300.095       -1.3228983e+08 -6535.4535      1483.1124    
   4185000   300.07639     -1.322897e+08  -6537.6641      1483.1267    
   4186000   300.00604     -1.3228939e+08 -6537.0762      1483.1409    
   4187000   300.0129      -1.322894e+08  -6547.5131      1483.1552    
   4188000   299.97651     -1.3228907e+08 -6540.0029      1483.1694    
   4189000   300.02842     -1.3228915e+08 -6549.504       1483.1836    
   4190000   300.0052      -1.3228929e+08 -6551.0926      1483.1979    
   4191000   299.93876     -1.3228918e+08 -6562.4386      1483.2121    
   4192000   299.91214     -1.3228858e+08 -6552.7924      1483.2264    
   4193000   300.00047     -1.3228877e+08 -6560.4518      1483.2406    
   4194000   299.97506     -1.3228865e+08 -6550.9577      1483.2549    
   4195000   299.94354     -1.3228855e+08 -6560.6533      1483.2691    
   4196000   299.96081     -1.3228839e+08 -6567.3653      1483.2833    
   4197000   299.98295     -1.3228806e+08 -6566.177       1483.2976    
   4198000   300.06005     -1.3228795e+08 -6567.4183      1483.3118    
   4199000   300.03839     -1.3228776e+08 -6553.034       1483.3261    
   4200000   300.06695     -1.3228765e+08 -6553.1512      1483.3403    
   4201000   300.02165     -1.3228736e+08 -6557.5047      1483.3546    
   4202000   300.04244     -1.3228764e+08 -6569.2687      1483.3688    
   4203000   299.99631     -1.3228734e+08 -6570.4829      1483.383     
   4204000   300.01711     -1.3228742e+08 -6575.4702      1483.3973    
   4205000   300.00239     -1.3228735e+08 -6573.5682      1483.4115    
   4206000   300.01427     -1.3228717e+08 -6573.9809      1483.4258    
   4207000   300.0005      -1.3228687e+08 -6573.188       1483.44      
   4208000   300.0381      -1.3228701e+08 -6579.0588      1483.4543    
   4209000   300.03892     -1.3228678e+08 -6572.1006      1483.4685    
   4210000   300.05093     -1.3228693e+08 -6579.7731      1483.4827    
   4211000   299.99894     -1.3228626e+08 -6572.4638      1483.497     
   4212000   300.03386     -1.3228635e+08 -6572.6023      1483.5112    
   4213000   299.9944      -1.3228615e+08 -6581.9107      1483.5255    
   4214000   300.0413      -1.3228613e+08 -6586.3888      1483.5397    
   4215000   299.95627     -1.3228567e+08 -6589.082       1483.5539    
   4216000   300.0377      -1.3228609e+08 -6585.3829      1483.5682    
   4217000   300.01924     -1.3228596e+08 -6587.7304      1483.5824    
   4218000   300.00591     -1.3228586e+08 -6590.4513      1483.5967    
   4219000   299.98894     -1.3228552e+08 -6591.7179      1483.6109    
   4220000   300.02073     -1.3228568e+08 -6589.5339      1483.6252    
   4221000   299.98328     -1.3228534e+08 -6594.7764      1483.6394    
   4222000   299.97123     -1.3228536e+08 -6592.8475      1483.6536    
   4223000   299.98642     -1.3228502e+08 -6597.933       1483.6679    
   4224000   300.00627     -1.3228481e+08 -6598.6697      1483.6821    
   4225000   299.96329     -1.3228496e+08 -6610.9283      1483.6964    
   4226000   300.01957     -1.3228504e+08 -6603.4578      1483.7106    
   4227000   300.00504     -1.3228497e+08 -6600.3727      1483.7249    
   4228000   299.97298     -1.3228478e+08 -6592.3129      1483.7391    
   4229000   299.985       -1.322845e+08  -6603.258       1483.7533    
   4230000   300.03111     -1.3228444e+08 -6609.2397      1483.7676    
   4231000   299.98304     -1.3228431e+08 -6611.4266      1483.7818    
   4232000   299.96324     -1.3228404e+08 -6611.7546      1483.7961    
   4233000   299.93593     -1.3228397e+08 -6611.3557      1483.8103    
   4234000   300.03329     -1.3228384e+08 -6610.4675      1483.8246    
   4235000   300.01152     -1.3228371e+08 -6610.1066      1483.8388    
   4236000   299.96261     -1.3228388e+08 -6612.6622      1483.853     
   4237000   299.93594     -1.322838e+08  -6616.098       1483.8673    
   4238000   299.93064     -1.3228363e+08 -6619.7901      1483.8815    
   4239000   299.95519     -1.3228326e+08 -6618.0056      1483.8958    
   4240000   299.93035     -1.3228289e+08 -6617.6698      1483.91      
   4241000   299.96723     -1.3228308e+08 -6619.0508      1483.9243    
   4242000   300.02502     -1.3228282e+08 -6625.2325      1483.9385    
   4243000   300.05111     -1.3228281e+08 -6624.4811      1483.9527    
   4244000   300.00932     -1.3228305e+08 -6623.5402      1483.967     
   4245000   299.95941     -1.3228256e+08 -6621.3171      1483.9812    
   4246000   300.02781     -1.3228262e+08 -6620.5624      1483.9955    
   4247000   299.96709     -1.3228264e+08 -6628.6436      1484.0097    
   4248000   299.99264     -1.3228262e+08 -6630.2933      1484.0239    
   4249000   299.92341     -1.3228224e+08 -6641.8762      1484.0382    
   4250000   299.984       -1.3228213e+08 -6639.4105      1484.0524    
   4251000   300.04693     -1.3228195e+08 -6643.2908      1484.0667    
   4252000   299.96436     -1.3228162e+08 -6639.6692      1484.0809    
   4253000   299.97454     -1.3228168e+08 -6642.0621      1484.0952    
   4254000   299.97719     -1.3228173e+08 -6634.5961      1484.1094    
   4255000   299.9783      -1.3228164e+08 -6638.5796      1484.1236    
   4256000   299.96345     -1.3228158e+08 -6642.1587      1484.1379    
   4257000   299.97748     -1.3228141e+08 -6640.116       1484.1521    
   4258000   299.95028     -1.322814e+08  -6649.8207      1484.1664    
   4259000   299.91633     -1.3228119e+08 -6644.0315      1484.1806    
   4260000   299.95603     -1.3228143e+08 -6653.077       1484.1949    
   4261000   299.99617     -1.3228112e+08 -6654.3825      1484.2091    
   4262000   300.02196     -1.3228076e+08 -6661.5681      1484.2233    
   4263000   299.99541     -1.3228036e+08 -6664.7031      1484.2376    
   4264000   300.0146      -1.3228037e+08 -6665.0142      1484.2518    
   4265000   300.07465     -1.3228015e+08 -6650.5262      1484.2661    
   4266000   300.08645     -1.3228008e+08 -6660.2576      1484.2803    
   4267000   300.03596     -1.3227998e+08 -6660.4555      1484.2946    
   4268000   300.05666     -1.3228031e+08 -6665.9993      1484.3088    
   4269000   300.00466     -1.322799e+08  -6663.3699      1484.323     
   4270000   299.95364     -1.3227984e+08 -6664.7092      1484.3373    
   4271000   299.93421     -1.322801e+08  -6675.7541      1484.3515    
   4272000   299.89461     -1.3227969e+08 -6680.1888      1484.3658    
   4273000   299.88655     -1.322796e+08  -6673.7691      1484.38      
   4274000   299.96815     -1.3227982e+08 -6669.9085      1484.3942    
   4275000   299.97404     -1.3227935e+08 -6667.303       1484.4085    
   4276000   299.97149     -1.322793e+08  -6663.5303      1484.4227    
   4277000   300.03425     -1.3227892e+08 -6669.9748      1484.437     
   4278000   300.05726     -1.3227861e+08 -6672.9883      1484.4512    
   4279000   299.98746     -1.3227834e+08 -6679.1878      1484.4655    
   4280000   300.04993     -1.3227848e+08 -6684.9762      1484.4797    
   4281000   299.97012     -1.3227838e+08 -6678.4669      1484.4939    
   4282000   299.99312     -1.3227809e+08 -6672.0345      1484.5082    
   4283000   299.9709      -1.3227832e+08 -6671.8292      1484.5224    
   4284000   299.98365     -1.3227836e+08 -6690.9696      1484.5367    
   4285000   300.02563     -1.3227807e+08 -6693.5037      1484.5509    
   4286000   300.03805     -1.3227823e+08 -6687.8727      1484.5652    
   4287000   299.9414      -1.3227779e+08 -6688.7403      1484.5794    
   4288000   300.01987     -1.3227789e+08 -6687.6918      1484.5936    
   4289000   300.00476     -1.3227797e+08 -6683.9661      1484.6079    
   4290000   299.93906     -1.3227754e+08 -6691.0433      1484.6221    
   4291000   299.97199     -1.3227764e+08 -6694.9544      1484.6364    
   4292000   299.93853     -1.3227719e+08 -6697.0988      1484.6506    
   4293000   300.00589     -1.3227757e+08 -6692.3287      1484.6649    
   4294000   299.94682     -1.3227699e+08 -6691.2447      1484.6791    
   4295000   299.99031     -1.3227717e+08 -6687.7065      1484.6933    
