LAMMPS (23 Jun 2022)
KOKKOS mode is enabled (src/KOKKOS/kokkos.cpp:105)
  will use up to 4 GPU(s) per node
  using 1 OpenMP thread(s) per MPI task
package kokkos
package kokkos neigh half newton off
#LAMMPS input file

# ------------------------ INITIALIZATION ----------------------------
processors    * * *
units         metal
dimension    3
boundary    p    p    p
atom_style   charge
atom_modify map array sort 0 1

#--------------------------- LAMMPS Data File--------------------------

read_data    relaxed_step.lmp #reset_relaxed.lmp # model_4.lmp # pre_strained.lmp # High_sep_Cu_45.lmp # Cu_111_FR_45_MIN.lmp
Reading data file ...
  orthogonal box = (-314.8477 -522.43942 600) to (1109.3869 540.14923 1100)
  4 by 4 by 2 MPI processor grid
  reading atoms ...
  37948320 atoms
  reading velocities ...
  37948320 velocities
  read_data CPU = 134.684 seconds
#read_dump   dump.min_1862000.lammpstrj 1862000 x y z vx vy vz
variable  temp equal 500
variable  temp_init equal ${temp}*2
variable  temp_init equal 500*2
variable  sratex equal 5e-6 # in 1/ps (0.5 strain after 10ns)
# ------------------------ FORCE FIELDS ------------------------------
pair_style    eam/alloy
pair_coeff    * * Cu01.eam.alloy.txt Cu # Cu

#------------------------- SETTINGS ---------------------------------

#change_box        all x scale 1.015 remap units box

compute csym all centro/atom fcc
#compute peratom all pe/atom

# compute stresses
#compute       sf all stress/atom NULL

#-------------For Lorentz Forces from QEq----------------------------
# Apply forces
#variable qfx atomfile input_fx_new.txt
#variable qfy atomfile input_fy_new.txt
#variable qfz atomfile input_fz_new.txt
#variable qe atom  -(x*v_qfx+y*v_qfy+z*v_qfz)

#fix force_q1 all addforce v_qfx v_qfy v_qfz energy v_qe
#fix_modify force_q1 energy yes

#delete_atoms group exclude
#fix freez hold setforce 0 0 0
#fix_modify force_q2 energy yes
thermo 1000
thermo_style custom step temp pe press lx
thermo_modify flush yes
#min_style fire
#minimize 0.0 1e-4 100000 100000
#--------Thermal Relax---------------------------
velocity all create ${temp_init} 200 rot no dist gaussian
velocity all create 1000 200 rot no dist gaussian
timestep  0.002
fix 1 all langevin ${temp} ${temp} 5 200
fix 1 all langevin 500 ${temp} 5 200
fix 1 all langevin 500 500 5 200
fix ensemble all nve
run 50000
Neighbor list info ...
  update every 1 steps, delay 10 steps, check yes
  max neighbors/atom: 2000, page size: 100000
  master list distance cutoff = 7.506786
  ghost atom cutoff = 7.506786
  binsize = 7.506786, bins = 190 142 67
  2 neighbor lists, perpetual/occasional/extra = 1 1 0
  (1) pair eam/alloy/kk, perpetual
      attributes: half, newton off, kokkos_device
      pair build: half/bin/kk/device
      stencil: full/bin/3d
      bin: kk/device
  (2) compute centro/atom, occasional
      attributes: full, newton off
      pair build: full/bin/atomonly
      stencil: full/bin/3d
      bin: standard
Per MPI rank memory allocation (min/avg/max) = 419 | 460.3 | 502.1 Mbytes
   Step          Temp          PotEng         Press            Lx      
         0   1000          -1.3404495e+08  6581.1843      1424.2346    
      1000   500.33206     -1.3159693e+08  10996.095      1424.2346    
      2000   494.93531     -1.3156551e+08  4413.263       1424.2346    
      3000   488.30185     -1.3149884e+08 -982.90737      1424.2346    
      4000   494.95095     -1.3149547e+08  836.95106      1424.2346    
      5000   500.51949     -1.3151652e+08  3835.8451      1424.2346    
      6000   502.409       -1.3153188e+08  6583.8166      1424.2346    
      7000   501.22219     -1.3153513e+08  6645.9552      1424.2346    
      8000   499.61176     -1.3152922e+08  5045.7849      1424.2346    
      9000   498.06502     -1.315167e+08   3528.9289      1424.2346    
     10000   498.12926     -1.3150805e+08  2933.6322      1424.2346    
     11000   499.63088     -1.3151142e+08  3711.368       1424.2346    
     12000   500.58489     -1.3151693e+08  4548.953       1424.2346    
     13000   500.97948     -1.3152223e+08  5221.9632      1424.2346    
     14000   500.40291     -1.3152167e+08  4935.9398      1424.2346    
     15000   499.98821     -1.3151956e+08  4544.5668      1424.2346    
     16000   499.54742     -1.3151591e+08  4140.2424      1424.2346    
     17000   499.71281     -1.3151597e+08  4215.0358      1424.2346    
     18000   500.09033     -1.3151708e+08  4392.368       1424.2346    
     19000   500.30873     -1.3151865e+08  4614.7324      1424.2346    
     20000   500.22079     -1.3151915e+08  4630.9747      1424.2346    
     21000   500.06182     -1.3151824e+08  4536.5602      1424.2346    
     22000   499.98629     -1.3151816e+08  4404.2286      1424.2346    
     23000   499.94118     -1.3151746e+08  4351.6583      1424.2346    
     24000   500.02133     -1.3151762e+08  4387.316       1424.2346    
     25000   500.05253     -1.3151813e+08  4442.0274      1424.2346    
     26000   500.12604     -1.3151857e+08  4492.4847      1424.2346    
     27000   500.03618     -1.315186e+08   4487.1665      1424.2346    
     28000   500.04573     -1.3151852e+08  4466.7398      1424.2346    
     29000   500.00407     -1.3151816e+08  4434.6512      1424.2346    
     30000   500.06977     -1.3151805e+08  4429.7837      1424.2346    
     31000   499.92219     -1.3151759e+08  4448.4358      1424.2346    
     32000   500.00039     -1.3151772e+08  4470.513       1424.2346    
     33000   500.037       -1.3151786e+08  4472.2332      1424.2346    
     34000   500.00937     -1.3151776e+08  4458.6486      1424.2346    
     35000   499.92541     -1.315177e+08   4455.0073      1424.2346    
     36000   499.92723     -1.3151802e+08  4446.9223      1424.2346    
     37000   500.01571     -1.31518e+08    4457.3298      1424.2346    
     38000   500.08228     -1.315186e+08   4453.445       1424.2346    
     39000   499.9993      -1.3151781e+08  4460.7449      1424.2346    
     40000   500.04685     -1.3151839e+08  4459.0244      1424.2346    
     41000   500.05181     -1.3151799e+08  4456.0426      1424.2346    
     42000   500.13094     -1.3151782e+08  4456.331       1424.2346    
     43000   499.92767     -1.3151776e+08  4451.2441      1424.2346    
     44000   499.96556     -1.3151823e+08  4456.2763      1424.2346    
     45000   499.95799     -1.3151846e+08  4460.2054      1424.2346    
     46000   500.0401      -1.3151814e+08  4464.1926      1424.2346    
     47000   499.94013     -1.3151771e+08  4456.7164      1424.2346    
     48000   500.00766     -1.3151827e+08  4449.4677      1424.2346    
     49000   499.89549     -1.3151801e+08  4457.4537      1424.2346    
     50000   499.97911     -1.3151799e+08  4467.2818      1424.2346    
Loop time of 707.418 on 32 procs for 50000 steps with 37948320 atoms

Performance: 12.213 ns/day, 1.965 hours/ns, 70.680 timesteps/s
72.7% CPU use with 32 MPI tasks x 1 OpenMP threads

MPI task timing breakdown:
Section |  min time  |  avg time  |  max time  |%varavg| %total
---------------------------------------------------------------
Pair    | 237.38     | 256.49     | 273.92     |  64.0 | 36.26
Neigh   | 33.232     | 49.675     | 67.412     | 138.2 |  7.02
Comm    | 43.842     | 59.574     | 75.571     | 192.5 |  8.42
Output  | 0.011411   | 0.46046    | 0.84754    |  43.9 |  0.07
Modify  | 196.33     | 271.63     | 345.76     | 433.9 | 38.40
Other   |            | 69.58      |            |       |  9.84

Nlocal:    1.18588e+06 ave 1.50427e+06 max      856306 min
Histogram: 16 0 0 0 0 0 0 0 0 16
Nghost:         184800 ave      216893 max      151941 min
Histogram: 16 0 0 0 0 0 0 0 0 16
Neighs:    8.61519e+07 ave 1.09285e+08 max 6.22146e+07 min
Histogram: 16 0 0 0 0 0 0 0 0 16
FullNghs:            0 ave           0 max           0 min
Histogram: 32 0 0 0 0 0 0 0 0 0

Total # of neighbors = 2.7568604e+09
Ave neighs/atom = 72.64776
Neighbor list builds = 1188
Dangerous builds = 0
unfix ensemble
write_data ${temp}_relaxed_config.lmp
write_data 500_relaxed_config.lmp
System init for write_data ...
#unfix freez
######################################
## NVT Langevin ##
#variable a loop 50
#label loop

#variable Ti equal ${temp}+($a-1)*4
#variable Tf equal ${temp}+$a*4
#reset_ids
#change_box all x scale ${eps} remap units box
fix        2 all deform 1 x erate ${sratex} units box remap x
fix        2 all deform 1 x erate 5e-06 units box remap x
#fix 1 all langevin ${temp} ${temp} 5 98

# Write dump file
#dump        shear all custom 500000 dump.min_*.lammpstrj id x y z # vx vy vz

#dump        defect all custom 100 dump.defect_*.lammpstrj id x y z c_csym
#dump_modify defect thresh c_csym <= 10 thresh c_csym > 4

fix         ensemble all nve
run 5000000
Per MPI rank memory allocation (min/avg/max) = 418.9 | 460.1 | 501.9 Mbytes
   Step          Temp          PotEng         Press            Lx      
     50000   499.97911     -1.3151799e+08  4467.2818      1424.2346    
     51000   499.92309     -1.3151841e+08  4443.8118      1424.2488    
     52000   499.9173      -1.3151819e+08  4446.2708      1424.2631    
     53000   499.86996     -1.3151892e+08  4437.9469      1424.2773    
     54000   499.78635     -1.315183e+08   4440.9414      1424.2915    
     55000   499.89905     -1.3151842e+08  4446.0498      1424.3058    
     56000   499.82181     -1.3151811e+08  4439.0822      1424.32      
     57000   499.91433     -1.3151845e+08  4435.4903      1424.3343    
     58000   499.84693     -1.3151833e+08  4431.3523      1424.3485    
     59000   500.01049     -1.3151876e+08  4424.3174      1424.3628    
     60000   499.94194     -1.3151778e+08  4422.6809      1424.377     
     61000   500.00377     -1.3151823e+08  4424.6083      1424.3912    
     62000   500.02992     -1.3151807e+08  4422.61        1424.4055    
     63000   499.92602     -1.3151766e+08  4427.6669      1424.4197    
     64000   500.00024     -1.3151828e+08  4407.9415      1424.434     
     65000   499.93614     -1.3151839e+08  4409.6164      1424.4482    
     66000   499.94505     -1.3151799e+08  4403.7653      1424.4625    
     67000   500.15142     -1.3151834e+08  4398.2635      1424.4767    
     68000   500.14573     -1.3151794e+08  4398.1572      1424.4909    
     69000   500.10544     -1.3151822e+08  4394.5541      1424.5052    
     70000   499.86403     -1.3151773e+08  4397.3047      1424.5194    
     71000   499.96529     -1.3151805e+08  4387.3059      1424.5337    
     72000   499.94856     -1.3151804e+08  4389.1726      1424.5479    
     73000   500.06146     -1.3151823e+08  4378.7527      1424.5622    
     74000   500.05992     -1.3151765e+08  4382.9493      1424.5764    
     75000   499.96439     -1.3151731e+08  4383.3235      1424.5906    
     76000   499.97379     -1.3151771e+08  4376.6708      1424.6049    
     77000   499.9904      -1.3151754e+08  4375.7387      1424.6191    
     78000   500.04617     -1.3151765e+08  4385.2916      1424.6334    
     79000   500.10212     -1.3151804e+08  4374.8716      1424.6476    
     80000   500.03998     -1.3151791e+08  4369.5908      1424.6618    
     81000   499.91363     -1.3151774e+08  4362.0739      1424.6761    
     82000   499.94666     -1.3151828e+08  4356.2467      1424.6903    
     83000   500.01765     -1.3151889e+08  4357.3077      1424.7046    
     84000   500.01004     -1.3151827e+08  4356.3508      1424.7188    
     85000   499.87109     -1.3151826e+08  4360.0838      1424.7331    
     86000   499.96524     -1.3151876e+08  4350.4299      1424.7473    
     87000   499.90655     -1.315178e+08   4348.0666      1424.7615    
     88000   500.01755     -1.3151827e+08  4331.0678      1424.7758    
     89000   499.9436      -1.3151804e+08  4332.0333      1424.79      
     90000   499.91399     -1.3151812e+08  4339.6885      1424.8043    
     91000   499.98928     -1.3151833e+08  4342.0339      1424.8185    
     92000   500.0366      -1.3151845e+08  4340.3772      1424.8328    
     93000   499.97471     -1.3151788e+08  4320.4252      1424.847     
     94000   499.87801     -1.3151741e+08  4313.6176      1424.8612    
     95000   500.12571     -1.3151847e+08  4317.6238      1424.8755    
     96000   500.03603     -1.3151808e+08  4329.0677      1424.8897    
     97000   500.09293     -1.3151812e+08  4319.7935      1424.904     
     98000   500.05707     -1.3151794e+08  4321.1273      1424.9182    
     99000   499.9374      -1.3151759e+08  4305.858       1424.9325    
    100000   499.91589     -1.3151796e+08  4310.5179      1424.9467    
    101000   499.8415      -1.3151764e+08  4306.3516      1424.9609    
    102000   499.93212     -1.3151811e+08  4297.0418      1424.9752    
    103000   499.83466     -1.3151825e+08  4290.625       1424.9894    
    104000   500.00798     -1.3151883e+08  4303.1907      1425.0037    
    105000   500.0628      -1.3151881e+08  4308.7261      1425.0179    
    106000   499.90764     -1.315182e+08   4309.3263      1425.0322    
    107000   499.88092     -1.3151833e+08  4283.5731      1425.0464    
    108000   499.87601     -1.3151776e+08  4283.0848      1425.0606    
    109000   499.91117     -1.3151781e+08  4271.6109      1425.0749    
    110000   499.92883     -1.3151804e+08  4273.4814      1425.0891    
    111000   499.9692      -1.3151827e+08  4272.2944      1425.1034    
    112000   499.96987     -1.3151791e+08  4278.5124      1425.1176    
    113000   500.00738     -1.3151796e+08  4279.5665      1425.1318    
    114000   499.97467     -1.3151769e+08  4280.1291      1425.1461    
    115000   500.03495     -1.3151823e+08  4257.9069      1425.1603    
    116000   500.0302      -1.3151828e+08  4257.0529      1425.1746    
    117000   499.94602     -1.3151788e+08  4255.97        1425.1888    
    118000   499.91008     -1.3151774e+08  4267.2375      1425.2031    
    119000   500.0501      -1.3151839e+08  4259.5455      1425.2173    
    120000   499.95661     -1.315179e+08   4265.6832      1425.2315    
    121000   500.03421     -1.3151832e+08  4248.65        1425.2458    
    122000   499.97747     -1.3151828e+08  4244.3897      1425.26      
    123000   500.0012      -1.3151768e+08  4235.3697      1425.2743    
    124000   500.09419     -1.3151802e+08  4240.2166      1425.2885    
    125000   499.88729     -1.3151723e+08  4242.1397      1425.3028    
    126000   500.00828     -1.3151787e+08  4245.2978      1425.317     
    127000   499.93984     -1.3151775e+08  4240.3735      1425.3312    
    128000   499.99892     -1.3151807e+08  4233.9695      1425.3455    
    129000   500.03337     -1.3151916e+08  4223.0252      1425.3597    
    130000   499.97828     -1.3151822e+08  4235.1575      1425.374     
    131000   499.90813     -1.3151807e+08  4231.7206      1425.3882    
    132000   499.96623     -1.3151853e+08  4217.5367      1425.4025    
    133000   499.95648     -1.3151802e+08  4207.0931      1425.4167    
    134000   500.05461     -1.3151796e+08  4203.9643      1425.4309    
    135000   500.01549     -1.3151784e+08  4212.2282      1425.4452    
    136000   500.00899     -1.3151808e+08  4214.2216      1425.4594    
    137000   499.94605     -1.3151803e+08  4208.6775      1425.4737    
    138000   499.97484     -1.3151818e+08  4208.3624      1425.4879    
    139000   499.92335     -1.3151744e+08  4203.203       1425.5021    
    140000   500.10996     -1.315177e+08   4194.6423      1425.5164    
    141000   499.98916     -1.315178e+08   4202.7601      1425.5306    
    142000   499.95614     -1.3151703e+08  4191.5729      1425.5449    
    143000   500.04674     -1.3151771e+08  4200.2585      1425.5591    
    144000   500.01838     -1.3151733e+08  4192.2666      1425.5734    
    145000   500.04318     -1.3151767e+08  4197.7916      1425.5876    
    146000   499.9977      -1.3151727e+08  4185.281       1425.6018    
    147000   499.9266      -1.3151747e+08  4181.8165      1425.6161    
    148000   499.94564     -1.3151789e+08  4168.2152      1425.6303    
    149000   499.97092     -1.3151801e+08  4175.3641      1425.6446    
    150000   500.01216     -1.315176e+08   4181.0357      1425.6588    
    151000   499.99664     -1.3151775e+08  4172.4821      1425.6731    
    152000   500.01167     -1.3151796e+08  4160.6199      1425.6873    
    153000   499.97434     -1.3151766e+08  4170.9835      1425.7015    
    154000   500.02553     -1.3151761e+08  4155.5586      1425.7158    
    155000   500.00562     -1.3151777e+08  4156.9518      1425.73      
    156000   500.02434     -1.3151765e+08  4153.7307      1425.7443    
    157000   500.13911     -1.3151801e+08  4155.2519      1425.7585    
    158000   500.02608     -1.3151741e+08  4154.3035      1425.7728    
    159000   500.11761     -1.315178e+08   4149.9811      1425.787     
    160000   499.94663     -1.3151768e+08  4143.0859      1425.8012    
    161000   499.87399     -1.3151794e+08  4143.1654      1425.8155    
    162000   500.06749     -1.3151816e+08  4133.6679      1425.8297    
    163000   499.93087     -1.315181e+08   4126.2922      1425.844     
    164000   499.92615     -1.315175e+08   4113.3272      1425.8582    
    165000   500.0126      -1.3151769e+08  4112.2725      1425.8724    
    166000   500.04271     -1.3151791e+08  4113.0881      1425.8867    
    167000   499.98823     -1.3151756e+08  4129.8834      1425.9009    
    168000   499.98319     -1.3151768e+08  4128.1861      1425.9152    
    169000   500.1282      -1.3151761e+08  4115.2833      1425.9294    
    170000   499.92372     -1.3151719e+08  4100.5466      1425.9437    
    171000   499.96716     -1.3151714e+08  4091.9046      1425.9579    
    172000   500.01405     -1.3151711e+08  4106.895       1425.9721    
    173000   499.94657     -1.315174e+08   4105.7651      1425.9864    
    174000   499.93906     -1.3151759e+08  4098.9614      1426.0006    
    175000   499.91276     -1.315178e+08   4087.9367      1426.0149    
    176000   499.96904     -1.3151828e+08  4087.2659      1426.0291    
    177000   499.96937     -1.3151805e+08  4095.5799      1426.0434    
    178000   499.92615     -1.3151766e+08  4099.1798      1426.0576    
    179000   499.9807      -1.3151788e+08  4084.6577      1426.0718    
    180000   500.01786     -1.3151803e+08  4079.2329      1426.0861    
    181000   499.98567     -1.315177e+08   4071.7045      1426.1003    
    182000   499.99719     -1.3151807e+08  4062.0776      1426.1146    
    183000   499.97443     -1.315174e+08   4071.7547      1426.1288    
    184000   500.0069      -1.3151766e+08  4071.9117      1426.1431    
    185000   499.99533     -1.3151654e+08  4076.367       1426.1573    
    186000   500.02801     -1.3151638e+08  4073.166       1426.1715    
    187000   499.99352     -1.3151701e+08  4067.2583      1426.1858    
    188000   499.98944     -1.3151729e+08  4063.2105      1426.2       
    189000   500.03417     -1.31517e+08    4063.4319      1426.2143    
    190000   499.99295     -1.3151706e+08  4052.3591      1426.2285    
    191000   500.03147     -1.3151721e+08  4044.7507      1426.2428    
    192000   499.97349     -1.3151696e+08  4040.6         1426.257     
    193000   500.03785     -1.3151755e+08  4051.0298      1426.2712    
    194000   500.01119     -1.3151724e+08  4042.8256      1426.2855    
    195000   499.94721     -1.3151701e+08  4055.3425      1426.2997    
    196000   499.97773     -1.3151782e+08  4040.7464      1426.314     
    197000   499.93544     -1.3151707e+08  4038.7424      1426.3282    
    198000   500.09318     -1.3151795e+08  4035.1737      1426.3424    
    199000   499.98329     -1.315174e+08   4034.3901      1426.3567    
    200000   499.96226     -1.3151728e+08  4023.153       1426.3709    
    201000   500.01068     -1.3151752e+08  4013.9523      1426.3852    
    202000   499.92349     -1.3151735e+08  4023.2482      1426.3994    
    203000   499.89748     -1.3151811e+08  4011.0351      1426.4137    
    204000   499.89759     -1.3151745e+08  4013.2543      1426.4279    
    205000   500.01244     -1.3151753e+08  4019.6877      1426.4421    
    206000   500.05328     -1.3151792e+08  4014.3514      1426.4564    
    207000   499.89957     -1.3151745e+08  4016.0611      1426.4706    
    208000   499.96223     -1.3151758e+08  4004.9859      1426.4849    
    209000   499.88358     -1.3151748e+08  3994.1567      1426.4991    
    210000   499.85685     -1.3151709e+08  3992.7234      1426.5134    
    211000   499.95168     -1.3151715e+08  3983.8114      1426.5276    
    212000   499.87459     -1.3151756e+08  3990.1852      1426.5418    
    213000   500.00981     -1.3151722e+08  3989.4046      1426.5561    
    214000   500.06185     -1.3151734e+08  3986.7228      1426.5703    
    215000   500.03883     -1.3151786e+08  3985.5231      1426.5846    
    216000   499.99184     -1.3151728e+08  3985.4918      1426.5988    
    217000   500.07409     -1.3151721e+08  3988.6085      1426.6131    
    218000   499.95686     -1.3151731e+08  3975.5876      1426.6273    
    219000   499.98659     -1.3151752e+08  3973.1739      1426.6415    
    220000   500.0171      -1.3151728e+08  3968.256       1426.6558    
    221000   499.9286      -1.3151694e+08  3967.7011      1426.67      
    222000   499.95319     -1.3151725e+08  3970.1445      1426.6843    
    223000   500.03181     -1.3151759e+08  3964.9377      1426.6985    
    224000   499.98305     -1.3151691e+08  3964.4391      1426.7127    
    225000   500.03884     -1.3151695e+08  3958.1988      1426.727     
    226000   499.98686     -1.3151652e+08  3954.9526      1426.7412    
    227000   500.06346     -1.3151664e+08  3953.7068      1426.7555    
    228000   500.15189     -1.315172e+08   3946.5753      1426.7697    
    229000   500.02817     -1.3151696e+08  3950.504       1426.784     
    230000   500.02011     -1.3151665e+08  3939.2166      1426.7982    
    231000   499.93581     -1.3151641e+08  3947.1039      1426.8124    
    232000   500.13281     -1.3151708e+08  3927.7721      1426.8267    
    233000   500.0214      -1.3151665e+08  3921.5445      1426.8409    
    234000   500.13353     -1.3151675e+08  3923.0634      1426.8552    
    235000   500.07907     -1.3151656e+08  3923.9043      1426.8694    
    236000   500.01775     -1.3151642e+08  3915.3789      1426.8837    
    237000   500.09863     -1.3151746e+08  3919.0991      1426.8979    
    238000   499.97894     -1.3151736e+08  3924.0237      1426.9121    
    239000   499.98899     -1.3151754e+08  3932.1948      1426.9264    
    240000   500.0857      -1.315173e+08   3923.9354      1426.9406    
    241000   500.08695     -1.315172e+08   3911.5765      1426.9549    
    242000   500.02451     -1.3151674e+08  3906.1407      1426.9691    
    243000   500.1173      -1.315172e+08   3915.9661      1426.9834    
    244000   499.95729     -1.315168e+08   3922.2736      1426.9976    
    245000   500.04705     -1.3151778e+08  3916.05        1427.0118    
    246000   500.01098     -1.3151707e+08  3903.7635      1427.0261    
    247000   500.00067     -1.3151713e+08  3897.4495      1427.0403    
    248000   499.86926     -1.3151694e+08  3891.8016      1427.0546    
    249000   499.87865     -1.315172e+08   3881.3818      1427.0688    
    250000   499.91083     -1.3151707e+08  3888.3154      1427.083     
    251000   499.96019     -1.3151719e+08  3878.6111      1427.0973    
    252000   499.99943     -1.3151759e+08  3888.5776      1427.1115    
    253000   499.96659     -1.3151728e+08  3878.3691      1427.1258    
    254000   499.92079     -1.3151771e+08  3882.6645      1427.14      
    255000   499.93833     -1.3151751e+08  3873.3712      1427.1543    
    256000   499.82876     -1.3151696e+08  3867.9808      1427.1685    
    257000   499.94663     -1.3151723e+08  3869.5615      1427.1827    
    258000   499.87392     -1.3151683e+08  3866.9988      1427.197     
    259000   500.05629     -1.3151723e+08  3875.8086      1427.2112    
    260000   499.95302     -1.3151656e+08  3857.3809      1427.2255    
    261000   500.049       -1.3151684e+08  3848.7222      1427.2397    
    262000   500.04948     -1.3151645e+08  3841.7467      1427.254     
    263000   500.11596     -1.3151668e+08  3852.7779      1427.2682    
    264000   500.04173     -1.3151672e+08  3850.6595      1427.2824    
    265000   499.98145     -1.3151661e+08  3851.322       1427.2967    
    266000   500.00961     -1.3151631e+08  3844.1719      1427.3109    
    267000   500.01086     -1.3151679e+08  3854.6951      1427.3252    
    268000   499.9472      -1.3151674e+08  3833.4454      1427.3394    
    269000   500.0724      -1.3151693e+08  3830.9011      1427.3537    
    270000   500.01012     -1.3151641e+08  3827.1721      1427.3679    
    271000   500.08487     -1.3151679e+08  3823.9483      1427.3821    
    272000   500.137       -1.3151623e+08  3830.4101      1427.3964    
    273000   500.10398     -1.3151589e+08  3826.8191      1427.4106    
    274000   500.05638     -1.3151596e+08  3820.809       1427.4249    
    275000   500.10479     -1.3151606e+08  3814.5007      1427.4391    
    276000   500.08982     -1.3151623e+08  3824.2307      1427.4533    
    277000   500.16988     -1.315167e+08   3825.1418      1427.4676    
    278000   500.06336     -1.3151643e+08  3821.5938      1427.4818    
    279000   500.06167     -1.3151652e+08  3812.0301      1427.4961    
    280000   500.12172     -1.3151661e+08  3808.5813      1427.5103    
    281000   500.0011      -1.3151669e+08  3799.86        1427.5246    
    282000   500.00026     -1.3151646e+08  3805.0409      1427.5388    
    283000   500.06326     -1.315168e+08   3792.3975      1427.553     
    284000   500.03347     -1.3151661e+08  3800.4361      1427.5673    
    285000   499.94774     -1.3151633e+08  3789.1755      1427.5815    
    286000   500.06343     -1.3151682e+08  3788.8983      1427.5958    
    287000   499.96851     -1.3151628e+08  3787.618       1427.61      
    288000   499.99813     -1.3151583e+08  3767.7988      1427.6243    
    289000   499.97227     -1.3151576e+08  3768.2066      1427.6385    
    290000   500.10211     -1.3151606e+08  3766.284       1427.6527    
    291000   500.01785     -1.3151632e+08  3785.487       1427.667     
    292000   500.00661     -1.3151662e+08  3778.0537      1427.6812    
    293000   499.94985     -1.3151621e+08  3776.4187      1427.6955    
    294000   499.95212     -1.3151653e+08  3758.4161      1427.7097    
    295000   500.03699     -1.3151664e+08  3752.8131      1427.724     
    296000   500.00057     -1.3151668e+08  3766.9053      1427.7382    
    297000   500.08791     -1.3151696e+08  3766.4802      1427.7524    
    298000   499.9976      -1.3151629e+08  3766.4229      1427.7667    
    299000   499.99572     -1.315166e+08   3752.5699      1427.7809    
    300000   499.98144     -1.3151614e+08  3742.4861      1427.7952    
    301000   500.02748     -1.3151588e+08  3744.1394      1427.8094    
    302000   500.1846      -1.3151638e+08  3739.7533      1427.8237    
    303000   500.10351     -1.3151622e+08  3741.4561      1427.8379    
    304000   500.08799     -1.3151627e+08  3743.0022      1427.8521    
    305000   500.12115     -1.3151617e+08  3748.8417      1427.8664    
    306000   500.16877     -1.3151617e+08  3732.5716      1427.8806    
    307000   500.04183     -1.3151576e+08  3725.2494      1427.8949    
    308000   500.16218     -1.3151612e+08  3712.8479      1427.9091    
    309000   500.07543     -1.3151589e+08  3719.8308      1427.9233    
    310000   500.07483     -1.3151582e+08  3722.5305      1427.9376    
    311000   500.06796     -1.3151575e+08  3726.6434      1427.9518    
    312000   500.10408     -1.3151581e+08  3718.1508      1427.9661    
    313000   500.12887     -1.3151632e+08  3707.0434      1427.9803    
    314000   500.03947     -1.3151607e+08  3692.3937      1427.9946    
    315000   500.06021     -1.3151629e+08  3696.0584      1428.0088    
    316000   499.94925     -1.3151593e+08  3696.7356      1428.023     
    317000   500.02748     -1.3151642e+08  3698.2721      1428.0373    
    318000   500.00825     -1.3151608e+08  3700.5466      1428.0515    
    319000   500.02005     -1.3151653e+08  3700.3872      1428.0658    
    320000   500.00985     -1.3151611e+08  3699.7739      1428.08      
    321000   500.04545     -1.3151612e+08  3695.603       1428.0943    
    322000   500.00915     -1.3151679e+08  3688.7633      1428.1085    
    323000   500.04909     -1.3151686e+08  3676.3451      1428.1227    
    324000   499.87426     -1.315162e+08   3678.3256      1428.137     
    325000   499.84612     -1.3151597e+08  3664.0487      1428.1512    
    326000   499.94285     -1.3151616e+08  3668.8548      1428.1655    
    327000   500.04476     -1.3151618e+08  3670.2378      1428.1797    
    328000   500.1346      -1.3151623e+08  3680.4494      1428.194     
    329000   499.95197     -1.3151559e+08  3674.4373      1428.2082    
    330000   500.01167     -1.3151614e+08  3663.9552      1428.2224    
    331000   499.91693     -1.3151604e+08  3653.8695      1428.2367    
    332000   499.92686     -1.3151619e+08  3659.9055      1428.2509    
    333000   499.95988     -1.31516e+08    3659.8564      1428.2652    
    334000   499.98782     -1.315159e+08   3651.3422      1428.2794    
    335000   499.9908      -1.315164e+08   3645.6967      1428.2936    
    336000   499.98716     -1.3151643e+08  3647.6345      1428.3079    
    337000   499.92188     -1.3151649e+08  3645.8483      1428.3221    
    338000   499.97102     -1.3151643e+08  3644.4687      1428.3364    
    339000   499.89614     -1.3151557e+08  3649.763       1428.3506    
    340000   500.06143     -1.3151645e+08  3638.6801      1428.3649    
    341000   500.09232     -1.3151635e+08  3624.8994      1428.3791    
    342000   499.91434     -1.3151584e+08  3622.712       1428.3933    
    343000   500.01907     -1.3151623e+08  3627.6352      1428.4076    
    344000   500.09207     -1.3151624e+08  3625.4047      1428.4218    
    345000   499.95602     -1.3151564e+08  3627.2091      1428.4361    
    346000   499.90845     -1.3151573e+08  3617.7364      1428.4503    
    347000   500.06507     -1.3151612e+08  3618.109       1428.4646    
    348000   500.00485     -1.3151592e+08  3605.8971      1428.4788    
    349000   500.04244     -1.3151566e+08  3621.5897      1428.493     
    350000   500.07322     -1.3151549e+08  3611.5727      1428.5073    
    351000   500.11044     -1.315155e+08   3612.8967      1428.5215    
    352000   500.03695     -1.3151612e+08  3592.7356      1428.5358    
    353000   499.95389     -1.3151605e+08  3590.5564      1428.55      
    354000   500.03255     -1.3151581e+08  3589.9355      1428.5643    
    355000   500.03321     -1.3151573e+08  3595.9637      1428.5785    
    356000   499.97596     -1.3151551e+08  3591.8882      1428.5927    
    357000   500.00185     -1.3151591e+08  3591.0787      1428.607     
    358000   499.97195     -1.3151589e+08  3593.0376      1428.6212    
    359000   499.96708     -1.3151618e+08  3591.987       1428.6355    
    360000   499.91216     -1.3151561e+08  3581.3065      1428.6497    
    361000   500.00156     -1.3151566e+08  3571.3815      1428.6639    
    362000   500.02656     -1.3151553e+08  3564.6998      1428.6782    
    363000   500.01192     -1.315158e+08   3564.7197      1428.6924    
    364000   500.07591     -1.3151568e+08  3569.7488      1428.7067    
    365000   500.0549      -1.3151583e+08  3583.2978      1428.7209    
    366000   500.01936     -1.3151583e+08  3573.8495      1428.7352    
    367000   500.04444     -1.315157e+08   3550.8311      1428.7494    
    368000   500.05466     -1.3151561e+08  3547.83        1428.7636    
    369000   499.98849     -1.315156e+08   3551.0762      1428.7779    
    370000   500.06281     -1.3151589e+08  3555.1921      1428.7921    
    371000   500.04797     -1.3151572e+08  3554.6417      1428.8064    
    372000   499.98857     -1.3151532e+08  3560.7763      1428.8206    
    373000   500.11965     -1.3151585e+08  3549.7885      1428.8349    
    374000   500.06497     -1.3151559e+08  3537.9179      1428.8491    
    375000   500.04245     -1.3151506e+08  3534.0385      1428.8633    
    376000   500.03156     -1.3151523e+08  3533.2238      1428.8776    
    377000   500.06877     -1.315152e+08   3536.874       1428.8918    
    378000   500.0438      -1.3151482e+08  3546.0037      1428.9061    
    379000   500.0795      -1.3151512e+08  3526.5108      1428.9203    
    380000   500.08509     -1.3151605e+08  3518.8609      1428.9346    
    381000   499.96522     -1.3151578e+08  3517.6091      1428.9488    
    382000   499.97385     -1.3151551e+08  3514.7308      1428.963     
    383000   499.93714     -1.3151515e+08  3527.7719      1428.9773    
    384000   500.10982     -1.3151579e+08  3521.7256      1428.9915    
    385000   500.0195      -1.3151581e+08  3513.2275      1429.0058    
    386000   500.10583     -1.3151555e+08  3518.035       1429.02      
    387000   499.95854     -1.3151472e+08  3512.6671      1429.0343    
    388000   500.03118     -1.315155e+08   3507.2133      1429.0485    
    389000   500.06975     -1.3151558e+08  3508.7967      1429.0627    
    390000   500.04863     -1.3151523e+08  3504.4373      1429.077     
    391000   500.01054     -1.3151562e+08  3490.421       1429.0912    
    392000   500.00063     -1.3151505e+08  3490.9006      1429.1055    
    393000   500.08636     -1.3151515e+08  3492.2012      1429.1197    
    394000   500.02773     -1.3151498e+08  3495.3211      1429.1339    
    395000   500.01374     -1.3151477e+08  3494.5906      1429.1482    
    396000   500.09867     -1.315156e+08   3484.4663      1429.1624    
    397000   500.05694     -1.3151556e+08  3479.7997      1429.1767    
    398000   499.99115     -1.3151548e+08  3487.0268      1429.1909    
    399000   499.96324     -1.3151537e+08  3480.6424      1429.2052    
    400000   500.04546     -1.3151566e+08  3470.916       1429.2194    
    401000   499.83532     -1.3151485e+08  3473.2647      1429.2336    
    402000   499.91533     -1.3151525e+08  3467.1567      1429.2479    
    403000   499.90539     -1.3151529e+08  3471.5684      1429.2621    
    404000   499.98295     -1.3151542e+08  3468.0358      1429.2764    
    405000   499.92837     -1.3151505e+08  3461.398       1429.2906    
    406000   500.01359     -1.3151526e+08  3452.4341      1429.3049    
    407000   500.02056     -1.3151565e+08  3445.2931      1429.3191    
    408000   500.02604     -1.3151524e+08  3448.271       1429.3333    
    409000   500.05003     -1.3151507e+08  3451.2648      1429.3476    
    410000   500.03581     -1.3151502e+08  3442.4403      1429.3618    
    411000   499.92724     -1.3151475e+08  3444.8196      1429.3761    
    412000   500.14521     -1.3151533e+08  3437.1933      1429.3903    
    413000   500.03449     -1.3151461e+08  3438.2244      1429.4046    
    414000   500.10577     -1.3151522e+08  3430.688       1429.4188    
    415000   499.82565     -1.3151471e+08  3432.9577      1429.433     
    416000   499.9282      -1.3151474e+08  3424.7806      1429.4473    
    417000   499.96399     -1.315149e+08   3416.3858      1429.4615    
    418000   499.89989     -1.3151461e+08  3428.3134      1429.4758    
    419000   499.92506     -1.3151489e+08  3421.6779      1429.49      
    420000   499.98454     -1.3151501e+08  3431.5958      1429.5042    
    421000   500.03623     -1.3151544e+08  3416.1899      1429.5185    
    422000   500.06204     -1.3151473e+08  3415.8861      1429.5327    
    423000   500.06117     -1.3151463e+08  3408.0628      1429.547     
    424000   500.05647     -1.3151452e+08  3409.8477      1429.5612    
    425000   500.0359      -1.3151428e+08  3401.7724      1429.5755    
    426000   500.07395     -1.3151459e+08  3399.9555      1429.5897    
    427000   500.04754     -1.3151454e+08  3404.1559      1429.6039    
    428000   499.90362     -1.3151411e+08  3400.5722      1429.6182    
    429000   499.95787     -1.3151476e+08  3390.8675      1429.6324    
    430000   499.91849     -1.3151467e+08  3396.7542      1429.6467    
    431000   499.94808     -1.3151497e+08  3387.0671      1429.6609    
    432000   500.00992     -1.3151476e+08  3375.2207      1429.6752    
    433000   499.97601     -1.3151461e+08  3386.0289      1429.6894    
    434000   499.84708     -1.3151472e+08  3377.3774      1429.7036    
    435000   499.93233     -1.3151509e+08  3384.0347      1429.7179    
    436000   499.9587      -1.3151499e+08  3385.4103      1429.7321    
    437000   499.89044     -1.3151398e+08  3384.2001      1429.7464    
    438000   499.97115     -1.3151453e+08  3373.9011      1429.7606    
    439000   500.09784     -1.3151411e+08  3359.8327      1429.7749    
    440000   500.11045     -1.3151404e+08  3363.2569      1429.7891    
    441000   500.13285     -1.3151435e+08  3354.6323      1429.8033    
    442000   500.12147     -1.3151451e+08  3356.9157      1429.8176    
    443000   500.12332     -1.3151438e+08  3353.987       1429.8318    
    444000   500.13885     -1.3151458e+08  3349.328       1429.8461    
    445000   500.07071     -1.3151428e+08  3355.0731      1429.8603    
    446000   499.91463     -1.3151436e+08  3357.4045      1429.8745    
    447000   500.06058     -1.3151501e+08  3353.9977      1429.8888    
    448000   499.94797     -1.3151464e+08  3345.7263      1429.903     
    449000   499.9788      -1.3151429e+08  3334.2403      1429.9173    
    450000   499.99215     -1.3151456e+08  3336.9506      1429.9315    
    451000   499.98612     -1.315145e+08   3332.6285      1429.9458    
    452000   499.83754     -1.3151462e+08  3341.9832      1429.96      
    453000   499.98138     -1.3151511e+08  3337.1658      1429.9742    
    454000   500.03746     -1.3151471e+08  3329.8808      1429.9885    
    455000   500.07787     -1.3151455e+08  3310.9204      1430.0027    
    456000   499.9377      -1.3151426e+08  3300.8157      1430.017     
    457000   499.89783     -1.3151416e+08  3308.8469      1430.0312    
    458000   500.06961     -1.3151491e+08  3312.5123      1430.0455    
    459000   500.10226     -1.315147e+08   3317.113       1430.0597    
    460000   500.01216     -1.3151359e+08  3316.9575      1430.0739    
    461000   499.98805     -1.3151356e+08  3303.3569      1430.0882    
    462000   499.99445     -1.3151393e+08  3302.2834      1430.1024    
    463000   500.09859     -1.31514e+08    3295.5063      1430.1167    
    464000   499.98571     -1.3151302e+08  3295.1436      1430.1309    
    465000   500.10731     -1.3151365e+08  3288.4619      1430.1452    
    466000   500.07839     -1.3151331e+08  3291.3575      1430.1594    
    467000   500.00992     -1.3151378e+08  3286.1006      1430.1736    
    468000   500.08607     -1.3151438e+08  3281.7932      1430.1879    
    469000   500.02982     -1.3151377e+08  3287.6475      1430.2021    
    470000   500.03857     -1.3151396e+08  3273.8387      1430.2164    
    471000   499.99903     -1.3151388e+08  3267.6164      1430.2306    
    472000   499.99292     -1.3151402e+08  3269.7345      1430.2448    
    473000   500.12793     -1.3151464e+08  3265.1345      1430.2591    
    474000   499.9612      -1.315141e+08   3269.2154      1430.2733    
    475000   499.86672     -1.315146e+08   3266.016       1430.2876    
    476000   499.95517     -1.3151472e+08  3253.0574      1430.3018    
    477000   499.99283     -1.3151393e+08  3254.1214      1430.3161    
    478000   499.9622      -1.3151407e+08  3254.9486      1430.3303    
    479000   500.00457     -1.3151375e+08  3262.8278      1430.3445    
    480000   499.98939     -1.3151396e+08  3262.6406      1430.3588    
    481000   500.06022     -1.3151428e+08  3252.9444      1430.373     
    482000   499.97545     -1.3151384e+08  3255.1134      1430.3873    
    483000   500.06095     -1.3151439e+08  3233.3861      1430.4015    
    484000   500.02974     -1.315139e+08   3227.5629      1430.4158    
    485000   500.06833     -1.3151381e+08  3233.1563      1430.43      
    486000   500.09571     -1.3151373e+08  3231.6944      1430.4442    
    487000   500.04808     -1.3151371e+08  3244.9547      1430.4585    
    488000   500.08522     -1.3151395e+08  3238.3581      1430.4727    
    489000   500.04496     -1.3151377e+08  3245.5221      1430.487     
    490000   500.04595     -1.3151378e+08  3220.6155      1430.5012    
    491000   500.07106     -1.3151359e+08  3222.3142      1430.5155    
    492000   499.96896     -1.3151318e+08  3211.2099      1430.5297    
    493000   499.97742     -1.3151438e+08  3209.034       1430.5439    
    494000   499.87049     -1.3151388e+08  3209.2725      1430.5582    
    495000   500.00923     -1.3151417e+08  3227.8194      1430.5724    
    496000   499.98463     -1.3151414e+08  3221.4515      1430.5867    
    497000   499.98219     -1.3151406e+08  3210.0961      1430.6009    
    498000   499.96668     -1.3151429e+08  3194.926       1430.6152    
    499000   499.9876      -1.3151359e+08  3193.758       1430.6294    
    500000   499.99733     -1.3151326e+08  3199.1605      1430.6436    
    501000   499.99072     -1.3151358e+08  3197.1968      1430.6579    
    502000   500.00258     -1.3151323e+08  3208.2199      1430.6721    
    503000   500.02097     -1.3151373e+08  3203.673       1430.6864    
    504000   499.97222     -1.3151343e+08  3188.0379      1430.7006    
    505000   499.9262      -1.3151324e+08  3174.0234      1430.7148    
    506000   499.99669     -1.3151375e+08  3172.0095      1430.7291    
    507000   499.94473     -1.3151317e+08  3170.3181      1430.7433    
    508000   500.03703     -1.3151397e+08  3175.1088      1430.7576    
    509000   500.03941     -1.3151382e+08  3178.2955      1430.7718    
    510000   500.07818     -1.3151373e+08  3164.6284      1430.7861    
    511000   500.08233     -1.3151339e+08  3159.1498      1430.8003    
    512000   499.98341     -1.3151354e+08  3155.3972      1430.8145    
    513000   500.06081     -1.3151375e+08  3157.842       1430.8288    
    514000   499.98612     -1.315135e+08   3160.7649      1430.843     
    515000   499.99343     -1.3151313e+08  3152.8175      1430.8573    
    516000   499.99894     -1.3151267e+08  3156.2315      1430.8715    
    517000   500.11389     -1.3151316e+08  3149.7341      1430.8858    
    518000   499.9666      -1.3151283e+08  3150.6491      1430.9       
    519000   500.03051     -1.3151311e+08  3141.8711      1430.9142    
    520000   499.98782     -1.3151331e+08  3147.0677      1430.9285    
    521000   500.05684     -1.3151368e+08  3145.2091      1430.9427    
    522000   499.95393     -1.3151313e+08  3145.693       1430.957     
    523000   499.99504     -1.3151317e+08  3154.6241      1430.9712    
    524000   499.98164     -1.3151367e+08  3147.7581      1430.9855    
    525000   499.85934     -1.3151386e+08  3137.0662      1430.9997    
    526000   500.08871     -1.3151377e+08  3134.2847      1431.0139    
    527000   499.93663     -1.3151312e+08  3134.1814      1431.0282    
    528000   500.08528     -1.3151278e+08  3134.9395      1431.0424    
    529000   499.91282     -1.3151285e+08  3119.0948      1431.0567    
    530000   500.0563      -1.3151306e+08  3111.6478      1431.0709    
    531000   500.01518     -1.315131e+08   3105.5707      1431.0851    
    532000   500.06894     -1.3151346e+08  3107.548       1431.0994    
    533000   500.08941     -1.3151313e+08  3119.717       1431.1136    
    534000   500.12672     -1.3151311e+08  3116.3908      1431.1279    
    535000   500.06871     -1.3151278e+08  3112.9691      1431.1421    
    536000   500.20484     -1.3151347e+08  3091.5104      1431.1564    
    537000   500.09568     -1.3151229e+08  3097.8388      1431.1706    
    538000   500.15501     -1.315124e+08   3099.1129      1431.1848    
    539000   500.07212     -1.3151262e+08  3093.974       1431.1991    
    540000   499.98638     -1.3151276e+08  3091.4523      1431.2133    
    541000   500.06044     -1.3151365e+08  3077.619       1431.2276    
    542000   499.96194     -1.3151309e+08  3087.29        1431.2418    
    543000   500.02665     -1.315132e+08   3085.6307      1431.2561    
    544000   500.0298      -1.3151366e+08  3078.9572      1431.2703    
    545000   500.00652     -1.3151328e+08  3072.0999      1431.2845    
    546000   499.93235     -1.3151344e+08  3068.3244      1431.2988    
    547000   499.96649     -1.3151273e+08  3063.1218      1431.313     
    548000   499.9701      -1.3151291e+08  3069.834       1431.3273    
    549000   499.97987     -1.3151271e+08  3073.7671      1431.3415    
    550000   499.89905     -1.3151207e+08  3068.183       1431.3558    
    551000   500.05006     -1.3151249e+08  3054.0688      1431.37      
    552000   500.12124     -1.3151267e+08  3045.562       1431.3842    
    553000   499.98412     -1.3151216e+08  3053.8144      1431.3985    
    554000   500.05949     -1.3151271e+08  3056.1587      1431.4127    
    555000   500.05513     -1.3151261e+08  3062.4305      1431.427     
    556000   500.00644     -1.3151225e+08  3058.3316      1431.4412    
    557000   500.02881     -1.3151237e+08  3042.7272      1431.4554    
    558000   499.97764     -1.3151249e+08  3030.5872      1431.4697    
    559000   500.09157     -1.3151279e+08  3027.4992      1431.4839    
    560000   500.06451     -1.3151266e+08  3029.6922      1431.4982    
    561000   500.06408     -1.3151274e+08  3036.7401      1431.5124    
    562000   499.98148     -1.315131e+08   3024.9697      1431.5267    
    563000   499.88278     -1.3151265e+08  3025.8412      1431.5409    
    564000   500.00067     -1.3151265e+08  3030.2668      1431.5551    
    565000   499.98268     -1.3151256e+08  3022.9038      1431.5694    
    566000   500.01198     -1.31513e+08    3014.8115      1431.5836    
    567000   499.88783     -1.3151201e+08  3022.8034      1431.5979    
    568000   499.97503     -1.315124e+08   3012.9763      1431.6121    
    569000   500.0337      -1.3151273e+08  3012.37        1431.6264    
    570000   499.99715     -1.3151258e+08  3014.5731      1431.6406    
    571000   499.96942     -1.3151237e+08  3018.6015      1431.6548    
    572000   499.90673     -1.3151279e+08  3012.3211      1431.6691    
    573000   499.94852     -1.3151241e+08  3013.4064      1431.6833    
    574000   499.96251     -1.3151279e+08  3001.7484      1431.6976    
    575000   499.87369     -1.3151204e+08  2994.6968      1431.7118    
    576000   499.98447     -1.315123e+08   2983.0407      1431.7261    
    577000   499.98895     -1.3151208e+08  2971.1344      1431.7403    
    578000   499.89443     -1.3151171e+08  2986.3991      1431.7545    
    579000   499.99554     -1.3151232e+08  2986.9852      1431.7688    
    580000   499.99405     -1.3151255e+08  2990.7416      1431.783     
    581000   499.94837     -1.3151257e+08  2973.8614      1431.7973    
    582000   499.97068     -1.3151224e+08  2979.9602      1431.8115    
    583000   500.01324     -1.3151243e+08  2955.9235      1431.8257    
    584000   500.01199     -1.3151168e+08  2969.6976      1431.84      
    585000   500.12548     -1.3151236e+08  2966.206       1431.8542    
    586000   500.06631     -1.3151253e+08  2980.5525      1431.8685    
    587000   500.05357     -1.315123e+08   2968.5198      1431.8827    
    588000   499.95488     -1.3151128e+08  2964.9354      1431.897     
    589000   500.05095     -1.3151182e+08  2945.287       1431.9112    
    590000   500.0523      -1.3151248e+08  2948.3962      1431.9254    
    591000   499.95969     -1.3151208e+08  2943.1325      1431.9397    
    592000   499.93857     -1.3151188e+08  2956.5828      1431.9539    
    593000   499.94562     -1.3151219e+08  2938.0293      1431.9682    
    594000   500.00789     -1.3151186e+08  2931.6684      1431.9824    
    595000   500.08735     -1.3151203e+08  2944.1176      1431.9967    
    596000   500.09141     -1.3151185e+08  2936.2956      1432.0109    
    597000   500.06757     -1.3151166e+08  2947.3939      1432.0251    
    598000   500.02471     -1.3151191e+08  2923.4183      1432.0394    
    599000   499.99462     -1.315117e+08   2924.3761      1432.0536    
    600000   499.91776     -1.3151131e+08  2914.5664      1432.0679    
    601000   499.93848     -1.3151178e+08  2917.8743      1432.0821    
    602000   500.04946     -1.3151187e+08  2917.4673      1432.0964    
    603000   500.07002     -1.3151159e+08  2925.5296      1432.1106    
    604000   499.93865     -1.3151131e+08  2916.4054      1432.1248    
    605000   499.91264     -1.3151164e+08  2921.1828      1432.1391    
    606000   499.97169     -1.3151178e+08  2901.8493      1432.1533    
    607000   500.0412      -1.3151149e+08  2915.2594      1432.1676    
    608000   500.07215     -1.3151208e+08  2902.0095      1432.1818    
    609000   500.0019      -1.3151166e+08  2911.2152      1432.1961    
    610000   499.9621      -1.3151153e+08  2906.2391      1432.2103    
    611000   499.98632     -1.3151119e+08  2908.5297      1432.2245    
    612000   500.13513     -1.3151167e+08  2888.3899      1432.2388    
    613000   500.01946     -1.3151148e+08  2877.7412      1432.253     
    614000   499.98969     -1.3151131e+08  2876.6892      1432.2673    
    615000   499.96405     -1.3151133e+08  2878.661       1432.2815    
    616000   500.07792     -1.3151164e+08  2887.5517      1432.2957    
    617000   500.00074     -1.3151121e+08  2888.871       1432.31      
    618000   500.06422     -1.3151166e+08  2873.3109      1432.3242    
    619000   499.97517     -1.3151092e+08  2867.5111      1432.3385    
    620000   499.95467     -1.3151177e+08  2858.279       1432.3527    
    621000   499.97073     -1.3151154e+08  2860.7699      1432.367     
    622000   499.90969     -1.3151128e+08  2868.9625      1432.3812    
    623000   499.99486     -1.3151183e+08  2866.8202      1432.3954    
    624000   499.96931     -1.3151151e+08  2854.4655      1432.4097    
    625000   499.93942     -1.3151128e+08  2849.3236      1432.4239    
    626000   500.04963     -1.3151127e+08  2842.2108      1432.4382    
    627000   499.97077     -1.3151112e+08  2853.6871      1432.4524    
    628000   500.11194     -1.3151187e+08  2838.2065      1432.4667    
    629000   499.93677     -1.3151126e+08  2841.288       1432.4809    
    630000   499.87045     -1.3151147e+08  2839.3492      1432.4951    
    631000   499.92461     -1.3151089e+08  2844.0774      1432.5094    
    632000   499.9454      -1.3151099e+08  2842.6234      1432.5236    
    633000   500.05511     -1.3151158e+08  2840.7244      1432.5379    
    634000   500.01003     -1.3151151e+08  2842.013       1432.5521    
    635000   499.94887     -1.3151148e+08  2840.4732      1432.5664    
    636000   499.88901     -1.3151169e+08  2840.6188      1432.5806    
    637000   499.93936     -1.3151167e+08  2825.3308      1432.5948    
    638000   499.93813     -1.3151146e+08  2824.6307      1432.6091    
    639000   499.91148     -1.3151083e+08  2825.7338      1432.6233    
    640000   500.04064     -1.3151161e+08  2826.6838      1432.6376    
    641000   500.05525     -1.3151185e+08  2816.6686      1432.6518    
    642000   499.93673     -1.3151163e+08  2804.7491      1432.666     
    643000   500.00243     -1.3151099e+08  2800.5384      1432.6803    
    644000   500.03969     -1.315107e+08   2808.1193      1432.6945    
    645000   500.01167     -1.3151094e+08  2813.8243      1432.7088    
    646000   500.01286     -1.3151059e+08  2811.9165      1432.723     
    647000   500.06336     -1.3151059e+08  2802.7487      1432.7373    
    648000   500.01039     -1.3151082e+08  2791.3288      1432.7515    
    649000   499.91647     -1.3151091e+08  2790.3888      1432.7657    
    650000   499.98866     -1.3151111e+08  2796.4066      1432.78      
    651000   499.99622     -1.3151093e+08  2776.6098      1432.7942    
    652000   499.90336     -1.3151063e+08  2790.1259      1432.8085    
    653000   499.92638     -1.3151104e+08  2779.0409      1432.8227    
    654000   499.94414     -1.31511e+08    2787.7591      1432.837     
    655000   499.87225     -1.3151041e+08  2790.9041      1432.8512    
    656000   500.06328     -1.315112e+08   2776.3024      1432.8654    
    657000   499.95419     -1.3151047e+08  2779.6242      1432.8797    
    658000   500.00045     -1.3151033e+08  2775.7456      1432.8939    
    659000   500.05408     -1.315112e+08   2778.9029      1432.9082    
    660000   500.06149     -1.3151122e+08  2766.9825      1432.9224    
    661000   499.88691     -1.3151108e+08  2774.0305      1432.9367    
    662000   499.80988     -1.315103e+08   2750.3265      1432.9509    
    663000   499.93419     -1.315105e+08   2756.7337      1432.9651    
    664000   499.98042     -1.3151072e+08  2753.0931      1432.9794    
    665000   499.92421     -1.315106e+08   2752.3522      1432.9936    
    666000   499.94703     -1.3151046e+08  2742.5984      1433.0079    
    667000   499.86182     -1.3151012e+08  2749.0162      1433.0221    
    668000   499.88854     -1.3151018e+08  2741.1385      1433.0363    
    669000   500.02125     -1.3151005e+08  2745.1868      1433.0506    
    670000   499.99545     -1.3151e+08     2743.7448      1433.0648    
    671000   500.09218     -1.3150981e+08  2744.6906      1433.0791    
    672000   500.11078     -1.3150992e+08  2737.879       1433.0933    
    673000   500.04834     -1.3151033e+08  2734.6681      1433.1076    
    674000   500.021       -1.3151e+08     2734.2934      1433.1218    
    675000   500.04041     -1.3151045e+08  2732.1296      1433.136     
    676000   499.931       -1.3151026e+08  2734.1306      1433.1503    
    677000   499.97879     -1.3151008e+08  2730.5503      1433.1645    
    678000   500.02267     -1.3151051e+08  2725.8542      1433.1788    
    679000   500.06311     -1.3151095e+08  2713.2827      1433.193     
    680000   500.00379     -1.315104e+08   2710.37        1433.2073    
    681000   499.92508     -1.3151055e+08  2705.7362      1433.2215    
    682000   500.02113     -1.3151041e+08  2713.5402      1433.2357    
    683000   499.96078     -1.3151044e+08  2708.8629      1433.25      
    684000   499.91579     -1.3150956e+08  2701.3302      1433.2642    
    685000   499.97913     -1.3150941e+08  2687.9347      1433.2785    
    686000   499.98196     -1.3150973e+08  2691.1323      1433.2927    
    687000   500.0371      -1.3150985e+08  2692.0104      1433.307     
    688000   499.97018     -1.315097e+08   2696.801       1433.3212    
    689000   499.98949     -1.3150942e+08  2705.4299      1433.3354    
    690000   499.98218     -1.3150992e+08  2687.6263      1433.3497    
    691000   500.09612     -1.3151016e+08  2681.2996      1433.3639    
    692000   499.90932     -1.3150936e+08  2674.2863      1433.3782    
    693000   500.00305     -1.3150979e+08  2669.2158      1433.3924    
    694000   499.9282      -1.3150948e+08  2680.9138      1433.4067    
    695000   499.96051     -1.3150988e+08  2673.6024      1433.4209    
    696000   499.93689     -1.3150961e+08  2683.3024      1433.4351    
    697000   499.95527     -1.315094e+08   2668.1219      1433.4494    
    698000   499.97094     -1.3150965e+08  2667.4257      1433.4636    
    699000   500.05016     -1.3150966e+08  2655.9109      1433.4779    
    700000   500.05293     -1.3150946e+08  2652.3692      1433.4921    
    701000   500.06332     -1.3150897e+08  2650.2623      1433.5063    
    702000   499.94846     -1.3150902e+08  2653.3093      1433.5206    
    703000   500.0574      -1.3150982e+08  2659.3367      1433.5348    
    704000   499.99187     -1.3150982e+08  2650.0359      1433.5491    
    705000   500.07186     -1.3150905e+08  2649.899       1433.5633    
    706000   499.99703     -1.3150923e+08  2647.1588      1433.5776    
    707000   499.9925      -1.3150949e+08  2639.1483      1433.5918    
    708000   500.07362     -1.3150992e+08  2641.6651      1433.606     
    709000   500.12283     -1.3150945e+08  2649.8873      1433.6203    
    710000   500.01663     -1.3150871e+08  2628.1469      1433.6345    
    711000   499.98565     -1.3150897e+08  2619.2684      1433.6488    
    712000   500.09216     -1.3150889e+08  2615.917       1433.663     
    713000   500.07733     -1.3150901e+08  2622.2781      1433.6773    
    714000   500.10434     -1.3150854e+08  2629.1728      1433.6915    
    715000   500.03627     -1.3150872e+08  2625.853       1433.7057    
    716000   499.99303     -1.3150894e+08  2617.7437      1433.72      
    717000   499.9171      -1.3150924e+08  2601.9252      1433.7342    
    718000   499.95513     -1.3150944e+08  2607.7175      1433.7485    
    719000   499.94522     -1.3150922e+08  2621.9765      1433.7627    
    720000   500.07071     -1.3150905e+08  2620.2301      1433.777     
    721000   500.02        -1.3150894e+08  2609.2912      1433.7912    
    722000   499.97297     -1.3150894e+08  2583.7591      1433.8054    
    723000   500.0688      -1.3150921e+08  2587.9625      1433.8197    
    724000   500.04497     -1.3150924e+08  2589.9066      1433.8339    
    725000   499.97248     -1.3150919e+08  2609.4732      1433.8482    
    726000   499.96493     -1.3150938e+08  2592.4024      1433.8624    
    727000   500.0063      -1.3150945e+08  2589.9774      1433.8766    
    728000   499.94431     -1.315093e+08   2574.5922      1433.8909    
    729000   499.92673     -1.3150881e+08  2575.7061      1433.9051    
    730000   500.06537     -1.3150923e+08  2577.9784      1433.9194    
    731000   500.04052     -1.3150886e+08  2581.9617      1433.9336    
    732000   500.02787     -1.3150913e+08  2577.5243      1433.9479    
    733000   500.02324     -1.3150909e+08  2570.7519      1433.9621    
    734000   499.98709     -1.3150892e+08  2580.8233      1433.9763    
    735000   499.96288     -1.3150837e+08  2572.1494      1433.9906    
    736000   500.04315     -1.3150839e+08  2578.1459      1434.0048    
    737000   500.05696     -1.3150821e+08  2561.6823      1434.0191    
    738000   500.09967     -1.3150857e+08  2555.5502      1434.0333    
    739000   500.03378     -1.3150808e+08  2545.9531      1434.0476    
    740000   500.01538     -1.3150844e+08  2543.6102      1434.0618    
    741000   499.88023     -1.3150822e+08  2535.0796      1434.076     
    742000   499.91092     -1.3150832e+08  2543.7175      1434.0903    
    743000   499.92458     -1.3150894e+08  2549.8217      1434.1045    
    744000   499.97975     -1.3150922e+08  2548.759       1434.1188    
    745000   499.86856     -1.3150907e+08  2541.8928      1434.133     
    746000   499.93887     -1.3150877e+08  2540.295       1434.1473    
    747000   500.01478     -1.3150855e+08  2535.7336      1434.1615    
    748000   500.03439     -1.3150848e+08  2526.4598      1434.1757    
    749000   499.99371     -1.3150819e+08  2515.2135      1434.19      
    750000   500.04771     -1.3150824e+08  2514.2826      1434.2042    
    751000   499.99308     -1.3150804e+08  2521.4792      1434.2185    
    752000   500.0879      -1.3150866e+08  2517.6032      1434.2327    
    753000   499.9305      -1.3150814e+08  2509.5812      1434.2469    
    754000   500.07897     -1.3150878e+08  2517.0991      1434.2612    
    755000   499.96725     -1.3150833e+08  2514.0916      1434.2754    
    756000   499.88986     -1.3150888e+08  2515.6391      1434.2897    
    757000   499.96198     -1.3150894e+08  2510.3425      1434.3039    
    758000   499.91889     -1.3150843e+08  2500.0447      1434.3182    
    759000   499.85076     -1.31508e+08    2490.0441      1434.3324    
    760000   499.91421     -1.3150755e+08  2490.7822      1434.3466    
    761000   500.03504     -1.3150783e+08  2490.5841      1434.3609    
    762000   499.99592     -1.3150784e+08  2495.457       1434.3751    
    763000   499.97616     -1.3150815e+08  2497.9079      1434.3894    
    764000   500.06359     -1.3150835e+08  2488.7919      1434.4036    
    765000   499.97464     -1.3150798e+08  2478.9459      1434.4179    
    766000   500.05453     -1.3150793e+08  2480.2068      1434.4321    
    767000   500.00962     -1.3150779e+08  2484.041       1434.4463    
    768000   500.1032      -1.3150784e+08  2487.6782      1434.4606    
    769000   500.05124     -1.315079e+08   2481.3652      1434.4748    
    770000   500.03315     -1.315078e+08   2472.8233      1434.4891    
    771000   499.99946     -1.3150803e+08  2460.871       1434.5033    
    772000   500.02232     -1.3150765e+08  2459.9278      1434.5176    
    773000   499.98726     -1.3150765e+08  2467.474       1434.5318    
    774000   500.05409     -1.3150769e+08  2472.5206      1434.546     
    775000   499.99943     -1.315078e+08   2467.8651      1434.5603    
    776000   499.95499     -1.3150804e+08  2461.8796      1434.5745    
    777000   499.91648     -1.3150793e+08  2446.5523      1434.5888    
    778000   500.03454     -1.3150785e+08  2451.4161      1434.603     
    779000   500.07846     -1.315076e+08   2452.3268      1434.6172    
    780000   499.97864     -1.3150774e+08  2455.3242      1434.6315    
    781000   500.1146      -1.3150749e+08  2443.7538      1434.6457    
    782000   500.12319     -1.3150725e+08  2443.9939      1434.66      
    783000   500.14315     -1.3150697e+08  2437.3767      1434.6742    
    784000   500.08094     -1.3150642e+08  2430.0999      1434.6885    
    785000   500.06782     -1.3150664e+08  2426.8016      1434.7027    
    786000   499.96489     -1.3150685e+08  2429.4532      1434.7169    
    787000   499.98379     -1.3150717e+08  2424.5305      1434.7312    
    788000   499.95988     -1.315071e+08   2433.04        1434.7454    
    789000   500.06554     -1.3150683e+08  2432.2488      1434.7597    
    790000   500.13157     -1.3150722e+08  2432.7301      1434.7739    
    791000   499.99786     -1.3150716e+08  2418.8927      1434.7882    
    792000   499.9851      -1.3150709e+08  2412.2811      1434.8024    
    793000   500.0806      -1.3150731e+08  2407.4288      1434.8166    
    794000   499.97983     -1.3150723e+08  2414.9014      1434.8309    
    795000   499.85706     -1.3150702e+08  2410.2405      1434.8451    
    796000   499.93876     -1.3150765e+08  2397.469       1434.8594    
    797000   499.956       -1.3150788e+08  2393.5616      1434.8736    
    798000   499.82209     -1.3150715e+08  2402.8745      1434.8879    
    799000   499.98673     -1.3150755e+08  2404.8722      1434.9021    
    800000   499.89205     -1.3150736e+08  2396.5976      1434.9163    
    801000   499.95041     -1.315071e+08   2389.3344      1434.9306    
    802000   499.85083     -1.315066e+08   2384.7926      1434.9448    
    803000   499.98386     -1.3150695e+08  2381.013       1434.9591    
    804000   499.96424     -1.3150638e+08  2385.0181      1434.9733    
    805000   500.03076     -1.3150672e+08  2380.8043      1434.9876    
    806000   499.9949      -1.3150663e+08  2378.8111      1435.0018    
    807000   500.04402     -1.3150717e+08  2370.0879      1435.016     
    808000   500.03606     -1.3150697e+08  2365.5226      1435.0303    
    809000   499.90244     -1.3150699e+08  2371.9418      1435.0445    
    810000   500.10264     -1.3150742e+08  2366.9991      1435.0588    
    811000   499.96709     -1.315069e+08   2363.2073      1435.073     
    812000   499.97463     -1.3150686e+08  2366.4591      1435.0872    
    813000   499.92428     -1.3150668e+08  2359.4061      1435.1015    
    814000   499.95486     -1.3150715e+08  2367.2114      1435.1157    
    815000   499.91939     -1.3150654e+08  2359.2511      1435.13      
    816000   499.93636     -1.3150615e+08  2349.6659      1435.1442    
    817000   499.98855     -1.3150643e+08  2347.2663      1435.1585    
    818000   499.99315     -1.3150662e+08  2345.7623      1435.1727    
    819000   500.05275     -1.3150689e+08  2356.837       1435.1869    
    820000   500.03256     -1.3150654e+08  2346.0735      1435.2012    
    821000   499.88515     -1.3150632e+08  2345.0088      1435.2154    
    822000   500.03159     -1.3150655e+08  2341.9992      1435.2297    
    823000   500.01968     -1.3150611e+08  2351.0272      1435.2439    
    824000   500.02973     -1.3150643e+08  2343.7881      1435.2582    
    825000   500.03205     -1.3150634e+08  2328.9174      1435.2724    
    826000   499.98967     -1.3150624e+08  2318.841       1435.2866    
    827000   500.03381     -1.3150626e+08  2313.1222      1435.3009    
    828000   499.97789     -1.3150667e+08  2324.5192      1435.3151    
    829000   500.00888     -1.3150632e+08  2327.5245      1435.3294    
    830000   499.91947     -1.3150608e+08  2320.6236      1435.3436    
    831000   499.89114     -1.3150604e+08  2317.5833      1435.3579    
    832000   499.95048     -1.3150633e+08  2304.4553      1435.3721    
    833000   500.05722     -1.3150645e+08  2297.7473      1435.3863    
    834000   499.98432     -1.3150614e+08  2301.7305      1435.4006    
    835000   499.93939     -1.3150577e+08  2303.6625      1435.4148    
    836000   500.00829     -1.3150617e+08  2301.4835      1435.4291    
    837000   499.95566     -1.3150614e+08  2302.3311      1435.4433    
    838000   499.91492     -1.3150562e+08  2303.07        1435.4575    
    839000   499.96131     -1.3150587e+08  2288.0085      1435.4718    
    840000   499.95858     -1.3150623e+08  2286.2155      1435.486     
    841000   499.9979      -1.3150585e+08  2282.8004      1435.5003    
    842000   499.98314     -1.315058e+08   2295.0577      1435.5145    
    843000   500.01895     -1.3150652e+08  2292.7613      1435.5288    
    844000   499.90021     -1.3150564e+08  2289.6418      1435.543     
    845000   499.89834     -1.3150567e+08  2283.8982      1435.5572    
    846000   499.92889     -1.3150615e+08  2273.4088      1435.5715    
    847000   500.03547     -1.3150609e+08  2264.7184      1435.5857    
    848000   499.93126     -1.3150537e+08  2262.4731      1435.6       
    849000   500.01314     -1.315061e+08   2259.3805      1435.6142    
    850000   499.95513     -1.3150583e+08  2259.5511      1435.6285    
    851000   500.02225     -1.3150606e+08  2262.6028      1435.6427    
    852000   499.97372     -1.3150577e+08  2253.6578      1435.6569    
    853000   499.97184     -1.3150589e+08  2256.1676      1435.6712    
    854000   499.96309     -1.3150573e+08  2248.7755      1435.6854    
    855000   499.89437     -1.3150556e+08  2252.6677      1435.6997    
    856000   500.04564     -1.3150609e+08  2254.5034      1435.7139    
    857000   499.97485     -1.3150575e+08  2268.1581      1435.7282    
    858000   500.00752     -1.3150558e+08  2255.7234      1435.7424    
    859000   499.97912     -1.3150573e+08  2258.128       1435.7566    
    860000   500.01737     -1.3150557e+08  2243.2115      1435.7709    
    861000   500.04159     -1.3150547e+08  2231.1593      1435.7851    
    862000   500.06232     -1.3150543e+08  2223.857       1435.7994    
    863000   499.9834      -1.3150496e+08  2245.1996      1435.8136    
    864000   500.05326     -1.3150587e+08  2245.7789      1435.8278    
    865000   499.99739     -1.3150538e+08  2237.938       1435.8421    
    866000   499.85581     -1.3150519e+08  2219.517       1435.8563    
    867000   499.91727     -1.3150537e+08  2214.3821      1435.8706    
    868000   499.84591     -1.3150535e+08  2215.7441      1435.8848    
    869000   499.91077     -1.3150556e+08  2211.6231      1435.8991    
    870000   499.86553     -1.3150538e+08  2217.1162      1435.9133    
    871000   499.95769     -1.3150537e+08  2199.8364      1435.9275    
    872000   499.95615     -1.315052e+08   2197.1617      1435.9418    
    873000   499.87366     -1.315048e+08   2192.9126      1435.956     
    874000   499.98163     -1.3150516e+08  2194.2641      1435.9703    
    875000   500.06761     -1.3150521e+08  2198.0895      1435.9845    
    876000   499.87642     -1.3150483e+08  2202.6266      1435.9988    
    877000   500.03615     -1.3150469e+08  2191.6781      1436.013     
    878000   500.00961     -1.3150464e+08  2183.8184      1436.0272    
    879000   500.07611     -1.3150439e+08  2181.1881      1436.0415    
    880000   500.0777      -1.3150435e+08  2186.339       1436.0557    
    881000   500.034       -1.3150497e+08  2187.3695      1436.07      
    882000   500.04537     -1.3150504e+08  2179.5362      1436.0842    
    883000   500.06217     -1.3150478e+08  2180.4501      1436.0985    
    884000   500.01255     -1.3150494e+08  2173.3778      1436.1127    
    885000   499.94601     -1.3150469e+08  2167.7514      1436.1269    
    886000   499.9068      -1.3150467e+08  2167.984       1436.1412    
    887000   499.92798     -1.3150434e+08  2153.6207      1436.1554    
    888000   499.94748     -1.3150469e+08  2168.5438      1436.1697    
    889000   499.98041     -1.3150498e+08  2163.6824      1436.1839    
    890000   499.96315     -1.3150511e+08  2160.3196      1436.1982    
    891000   499.78729     -1.3150442e+08  2156.5032      1436.2124    
    892000   499.95448     -1.3150398e+08  2168.4032      1436.2266    
    893000   500.00702     -1.3150392e+08  2159.7871      1436.2409    
    894000   500.06854     -1.3150429e+08  2148.5343      1436.2551    
    895000   500.02741     -1.3150383e+08  2153.0695      1436.2694    
    896000   499.99747     -1.3150404e+08  2141.5823      1436.2836    
    897000   500.08835     -1.3150476e+08  2138.6139      1436.2978    
    898000   499.92831     -1.3150392e+08  2138.18        1436.3121    
    899000   500.00544     -1.3150433e+08  2127.5046      1436.3263    
    900000   499.93855     -1.3150419e+08  2133.5595      1436.3406    
    901000   499.97056     -1.3150377e+08  2114.6094      1436.3548    
    902000   500.08931     -1.315044e+08   2122.7142      1436.3691    
    903000   499.99107     -1.3150394e+08  2128.0508      1436.3833    
    904000   499.94554     -1.3150418e+08  2125.3477      1436.3975    
    905000   499.97518     -1.3150427e+08  2119.3129      1436.4118    
    906000   499.82824     -1.3150356e+08  2125.1451      1436.426     
    907000   499.9523      -1.3150382e+08  2113.1005      1436.4403    
    908000   499.91809     -1.3150389e+08  2120.8594      1436.4545    
    909000   499.94306     -1.3150369e+08  2111.1798      1436.4688    
    910000   499.93521     -1.3150413e+08  2103.8643      1436.483     
    911000   499.95945     -1.3150389e+08  2093.4597      1436.4972    
    912000   499.99098     -1.315043e+08   2099.2628      1436.5115    
    913000   499.99939     -1.3150368e+08  2102.5024      1436.5257    
    914000   500.01713     -1.3150387e+08  2101.7749      1436.54      
    915000   499.93597     -1.315039e+08   2101.0525      1436.5542    
    916000   499.95801     -1.31504e+08    2090.6008      1436.5685    
    917000   499.99197     -1.315036e+08   2081.4967      1436.5827    
    918000   499.98353     -1.315035e+08   2078.4027      1436.5969    
    919000   499.93411     -1.3150317e+08  2078.4367      1436.6112    
    920000   500.03979     -1.3150382e+08  2084.2779      1436.6254    
    921000   499.89768     -1.3150334e+08  2082.8824      1436.6397    
    922000   499.93705     -1.3150314e+08  2096.2538      1436.6539    
    923000   500.00669     -1.3150313e+08  2086.4352      1436.6681    
    924000   500.0503      -1.3150299e+08  2084.7427      1436.6824    
    925000   499.98557     -1.3150304e+08  2063.13        1436.6966    
    926000   500.06336     -1.315033e+08   2044.9386      1436.7109    
    927000   500.03709     -1.3150331e+08  2060.5909      1436.7251    
    928000   500.05635     -1.3150275e+08  2068.8202      1436.7394    
    929000   500.01185     -1.3150317e+08  2069.454       1436.7536    
    930000   500.00537     -1.3150311e+08  2055.1069      1436.7678    
    931000   500.1339      -1.3150324e+08  2042.6296      1436.7821    
    932000   499.94915     -1.3150296e+08  2040.579       1436.7963    
    933000   499.95365     -1.3150287e+08  2044.1382      1436.8106    
    934000   499.9973      -1.3150307e+08  2035.5326      1436.8248    
    935000   500.02592     -1.3150292e+08  2039.41        1436.8391    
    936000   500.05325     -1.3150271e+08  2045.8104      1436.8533    
    937000   500.01876     -1.3150294e+08  2043.464       1436.8675    
    938000   499.99734     -1.3150274e+08  2042.3704      1436.8818    
    939000   499.98244     -1.315027e+08   2028.2632      1436.896     
    940000   499.90753     -1.3150279e+08  2024.7911      1436.9103    
    941000   500.0492      -1.315034e+08   2019.5816      1436.9245    
    942000   500.01214     -1.3150312e+08  2024.2417      1436.9388    
    943000   499.92412     -1.3150248e+08  2019.3531      1436.953     
    944000   500.11994     -1.3150305e+08  2025.8881      1436.9672    
    945000   500.01624     -1.315027e+08   2026.1684      1436.9815    
    946000   499.9159      -1.3150236e+08  2017.1763      1436.9957    
    947000   500.06578     -1.315026e+08   1995.9149      1437.01      
    948000   500.04356     -1.3150286e+08  2001.1935      1437.0242    
    949000   499.97504     -1.3150258e+08  2003.1085      1437.0384    
    950000   500.10211     -1.3150245e+08  2001.823       1437.0527    
    951000   500.00071     -1.3150227e+08  1992.3487      1437.0669    
    952000   500.04478     -1.3150252e+08  1991.9071      1437.0812    
    953000   499.97203     -1.315025e+08   1993.4479      1437.0954    
    954000   499.89781     -1.3150204e+08  1995.8914      1437.1097    
    955000   499.99821     -1.3150238e+08  1993.9349      1437.1239    
    956000   500.01309     -1.315022e+08   1988.6185      1437.1381    
    957000   499.96469     -1.3150216e+08  1978.0077      1437.1524    
    958000   500.02222     -1.3150267e+08  1985.7311      1437.1666    
    959000   499.95323     -1.315027e+08   1985.3509      1437.1809    
    960000   499.85017     -1.3150206e+08  1973.6542      1437.1951    
    961000   499.96274     -1.315028e+08   1966.3173      1437.2094    
    962000   499.90266     -1.3150226e+08  1970.266       1437.2236    
    963000   499.91156     -1.3150269e+08  1969.3037      1437.2378    
    964000   499.9185      -1.3150263e+08  1958.2899      1437.2521    
    965000   499.7895      -1.3150212e+08  1965.073       1437.2663    
    966000   499.89771     -1.3150219e+08  1963.0419      1437.2806    
    967000   499.92705     -1.3150248e+08  1962.038       1437.2948    
    968000   500.02608     -1.3150242e+08  1958.5305      1437.3091    
    969000   500.04856     -1.3150174e+08  1957.1353      1437.3233    
    970000   500.10534     -1.3150168e+08  1948.0027      1437.3375    
    971000   500.12826     -1.3150186e+08  1954.4935      1437.3518    
    972000   500.08738     -1.3150158e+08  1954.4946      1437.366     
    973000   500.01848     -1.3150177e+08  1957.6731      1437.3803    
    974000   500.04436     -1.3150235e+08  1957.0977      1437.3945    
    975000   499.91093     -1.3150155e+08  1942.7053      1437.4087    
    976000   499.98076     -1.3150102e+08  1932.1408      1437.423     
    977000   499.99439     -1.3150162e+08  1932.1621      1437.4372    
    978000   500.01769     -1.3150126e+08  1935.0716      1437.4515    
    979000   500.05011     -1.3150193e+08  1939.5669      1437.4657    
    980000   499.95021     -1.3150175e+08  1928.4251      1437.48      
    981000   499.93059     -1.3150151e+08  1922.8607      1437.4942    
    982000   499.91128     -1.3150148e+08  1902.2648      1437.5084    
    983000   499.91859     -1.3150177e+08  1910.0673      1437.5227    
    984000   499.96691     -1.3150207e+08  1913.2791      1437.5369    
    985000   500.00797     -1.3150166e+08  1927.7552      1437.5512    
    986000   500.00649     -1.3150159e+08  1923.747       1437.5654    
    987000   500.11208     -1.3150146e+08  1913.7517      1437.5797    
    988000   500.02229     -1.3150104e+08  1914.0334      1437.5939    
    989000   500.06163     -1.3150126e+08  1903.2912      1437.6081    
    990000   499.9874      -1.3150172e+08  1899.9051      1437.6224    
    991000   499.93843     -1.315018e+08   1894.5187      1437.6366    
    992000   500.01443     -1.3150184e+08  1906.4176      1437.6509    
    993000   499.95307     -1.3150151e+08  1894.5716      1437.6651    
    994000   499.95697     -1.3150107e+08  1891.7841      1437.6794    
    995000   499.90823     -1.3150105e+08  1879.6852      1437.6936    
    996000   499.94182     -1.3150115e+08  1881.002       1437.7078    
    997000   499.97778     -1.3150107e+08  1885.1577      1437.7221    
    998000   499.88359     -1.315012e+08   1884.5777      1437.7363    
    999000   499.96703     -1.3150149e+08  1878.2009      1437.7506    
   1000000   499.90171     -1.3150052e+08  1872.9123      1437.7648    
   1001000   500.08439     -1.3150071e+08  1858.8351      1437.7791    
   1002000   500.12359     -1.3150114e+08  1857.4017      1437.7933    
   1003000   500.05315     -1.3150061e+08  1864.835       1437.8075    
   1004000   500.14617     -1.3150076e+08  1867.0478      1437.8218    
   1005000   500.07604     -1.3150063e+08  1862.7187      1437.836     
   1006000   500.00174     -1.3150068e+08  1856.7654      1437.8503    
   1007000   500.0204      -1.3150115e+08  1860.7697      1437.8645    
   1008000   500.09205     -1.3150101e+08  1855.487       1437.8787    
   1009000   499.97098     -1.3150058e+08  1845.5079      1437.893     
   1010000   500.04765     -1.3150078e+08  1843.5642      1437.9072    
   1011000   500.08439     -1.3150057e+08  1847.4757      1437.9215    
   1012000   499.97645     -1.3149998e+08  1850.9208      1437.9357    
   1013000   500.03275     -1.3150056e+08  1848.3832      1437.95      
   1014000   499.91963     -1.315002e+08   1845.1685      1437.9642    
   1015000   499.90438     -1.3150054e+08  1843.9139      1437.9784    
   1016000   500.09069     -1.3150112e+08  1830.7689      1437.9927    
   1017000   499.94925     -1.3149991e+08  1836.9258      1438.0069    
   1018000   499.97072     -1.3150034e+08  1817.7282      1438.0212    
   1019000   500.06834     -1.3150029e+08  1817.0397      1438.0354    
   1020000   500.04776     -1.3150013e+08  1812.7252      1438.0497    
   1021000   500.05242     -1.3149993e+08  1818.8775      1438.0639    
   1022000   500.05861     -1.3149983e+08  1822.8688      1438.0781    
   1023000   499.95617     -1.3149968e+08  1826.4433      1438.0924    
   1024000   500.0036      -1.3150035e+08  1821.923       1438.1066    
   1025000   500.00505     -1.3150017e+08  1816.1991      1438.1209    
   1026000   500.04818     -1.3150012e+08  1818.55        1438.1351    
   1027000   500.02537     -1.3149997e+08  1809.051       1438.1494    
   1028000   499.99284     -1.3150024e+08  1800.681       1438.1636    
   1029000   499.96457     -1.3149998e+08  1807.1804      1438.1778    
   1030000   499.97548     -1.3149968e+08  1807.9173      1438.1921    
   1031000   499.98357     -1.3150005e+08  1804.0928      1438.2063    
   1032000   499.9336      -1.3150031e+08  1801.2271      1438.2206    
   1033000   499.97696     -1.3150028e+08  1795.1272      1438.2348    
   1034000   499.9813      -1.315e+08      1793.41        1438.249     
   1035000   500.04434     -1.3150018e+08  1767.6832      1438.2633    
   1036000   499.89434     -1.3149944e+08  1776.8354      1438.2775    
[...]
   3705000   499.96157     -1.3130808e+08 -3885.2176      1476.2904    
   3706000   499.96939     -1.313079e+08  -3876.5295      1476.3046    
   3707000   500.01529     -1.3130815e+08 -3877.4543      1476.3188    
   3708000   500.00265     -1.3130774e+08 -3880.2322      1476.3331    
   3709000   499.99607     -1.3130778e+08 -3892.1117      1476.3473    
   3710000   499.94266     -1.3130784e+08 -3892.7013      1476.3616    
   3711000   499.97322     -1.3130753e+08 -3897.6541      1476.3758    
   3712000   499.95101     -1.3130745e+08 -3905.7944      1476.39      
   3713000   499.99547     -1.3130766e+08 -3906.666       1476.4043    
   3714000   500.05617     -1.3130737e+08 -3896.4713      1476.4185    
   3715000   500.03075     -1.3130668e+08 -3897.1061      1476.4328    
   3716000   500.03502     -1.3130705e+08 -3900.0865      1476.447     
   3717000   500.05146     -1.3130659e+08 -3901.8613      1476.4613    
   3718000   499.96612     -1.3130659e+08 -3904.7423      1476.4755    
   3719000   500.02061     -1.3130666e+08 -3899.6926      1476.4897    
   3720000   500.0672      -1.313072e+08  -3913.3314      1476.504     
   3721000   499.98064     -1.3130609e+08 -3914.7635      1476.5182    
   3722000   500.0197      -1.3130656e+08 -3918.8278      1476.5325    
   3723000   499.93421     -1.3130632e+08 -3916.0649      1476.5467    
   3724000   500.03843     -1.3130653e+08 -3919.0263      1476.561     
   3725000   499.95707     -1.3130607e+08 -3909.0446      1476.5752    
   3726000   499.96408     -1.3130586e+08 -3914.7476      1476.5894    
   3727000   500.06652     -1.3130591e+08 -3922.8029      1476.6037    
   3728000   500.08976     -1.3130558e+08 -3929.6979      1476.6179    
   3729000   499.99065     -1.3130479e+08 -3917.7958      1476.6322    
   3730000   500.01197     -1.3130537e+08 -3921.5555      1476.6464    
   3731000   499.97399     -1.3130513e+08 -3925.94        1476.6607    
   3732000   500.0018      -1.3130512e+08 -3937.0301      1476.6749    
   3733000   500.03073     -1.313046e+08  -3939.7574      1476.6891    
   3734000   500.05772     -1.3130449e+08 -3933.1367      1476.7034    
   3735000   500.1044      -1.3130491e+08 -3930.536       1476.7176    
   3736000   499.96226     -1.3130474e+08 -3938.4131      1476.7319    
   3737000   499.99954     -1.3130451e+08 -3930.5443      1476.7461    
   3738000   500.04227     -1.313044e+08  -3934.9943      1476.7604    
   3739000   499.98681     -1.3130397e+08 -3942.9378      1476.7746    
   3740000   500.03343     -1.3130431e+08 -3944.9065      1476.7888    
   3741000   500.02253     -1.3130391e+08 -3947.1792      1476.8031    
   3742000   500.03421     -1.313042e+08  -3945.0106      1476.8173    
   3743000   499.99524     -1.3130405e+08 -3943.3257      1476.8316    
   3744000   500.03071     -1.3130414e+08 -3936.5038      1476.8458    
   3745000   500.07185     -1.3130376e+08 -3950.2042      1476.86      
   3746000   500.08057     -1.3130333e+08 -3958.0868      1476.8743    
   3747000   500.09473     -1.3130349e+08 -3952.8677      1476.8885    
   3748000   500.04868     -1.3130338e+08 -3958.9748      1476.9028    
   3749000   500.05704     -1.3130356e+08 -3955.4056      1476.917     
   3750000   500.0208      -1.3130318e+08 -3959.9655      1476.9313    
   3751000   500.06257     -1.3130238e+08 -3949.7782      1476.9455    
   3752000   500.12333     -1.3130311e+08 -3961.6416      1476.9597    
   3753000   500.10061     -1.3130293e+08 -3969.4359      1476.974     
   3754000   500.02164     -1.313024e+08  -3965.334       1476.9882    
   3755000   499.97832     -1.3130211e+08 -3960.8003      1477.0025    
   3756000   500.07333     -1.3130236e+08 -3952.8565      1477.0167    
   3757000   500.0365      -1.313026e+08  -3963.3188      1477.031     
   3758000   499.99243     -1.3130271e+08 -3971.569       1477.0452    
   3759000   500.05393     -1.3130258e+08 -3968.0588      1477.0594    
   3760000   500.0684      -1.3130314e+08 -3967.7081      1477.0737    
   3761000   499.9306      -1.3130287e+08 -3973.7863      1477.0879    
   3762000   499.9612      -1.3130315e+08 -3982.3365      1477.1022    
   3763000   499.95603     -1.3130231e+08 -3984.9673      1477.1164    
   3764000   499.93326     -1.3130165e+08 -3980.1508      1477.1307    
   3765000   500.01958     -1.313016e+08  -3982.1246      1477.1449    
   3766000   500.02505     -1.3130218e+08 -3990.411       1477.1591    
   3767000   499.99896     -1.3130206e+08 -3996.0002      1477.1734    
   3768000   500.04043     -1.313023e+08  -3987.3734      1477.1876    
   3769000   500.01921     -1.31302e+08   -3986.2691      1477.2019    
   3770000   499.89959     -1.3130189e+08 -3986.5693      1477.2161    
   3771000   499.86777     -1.3130146e+08 -3997.1281      1477.2303    
   3772000   499.88642     -1.3130128e+08 -3989.9583      1477.2446    
   3773000   500.00115     -1.3130131e+08 -4000.629       1477.2588    
   3774000   499.93909     -1.3130102e+08 -4003.4542      1477.2731    
   3775000   499.97794     -1.3130071e+08 -4012.3335      1477.2873    
   3776000   500.05856     -1.3130079e+08 -4005.9194      1477.3016    
   3777000   499.98166     -1.3130019e+08 -3996.0764      1477.3158    
   3778000   500.04373     -1.3130087e+08 -4001.1353      1477.33      
   3779000   500.01142     -1.3130088e+08 -4008.216       1477.3443    
   3780000   499.95266     -1.3130014e+08 -4007.3114      1477.3585    
   3781000   499.95984     -1.313001e+08  -4009.6638      1477.3728    
   3782000   499.94245     -1.3130038e+08 -4000.2659      1477.387     
   3783000   500.04731     -1.3129975e+08 -4000.3815      1477.4013    
   3784000   500.08602     -1.3129963e+08 -4016.8451      1477.4155    
   3785000   500.02327     -1.3129972e+08 -4021.3815      1477.4297    
   3786000   500.07217     -1.3129919e+08 -4013.3424      1477.444     
   3787000   499.97879     -1.3129895e+08 -4023.857       1477.4582    
   3788000   500.0416      -1.3129975e+08 -4017.3558      1477.4725    
   3789000   499.92844     -1.3129931e+08 -4019.7483      1477.4867    
   3790000   499.94919     -1.3130004e+08 -4016.8777      1477.501     
   3791000   499.95213     -1.3129993e+08 -4036.7143      1477.5152    
   3792000   499.78424     -1.3129921e+08 -4041.188       1477.5294    
   3793000   499.91947     -1.3129934e+08 -4046.6689      1477.5437    
   3794000   499.87873     -1.3129921e+08 -4034.6414      1477.5579    
   3795000   499.98517     -1.312992e+08  -4042.0071      1477.5722    
   3796000   499.96871     -1.312989e+08  -4046.883       1477.5864    
   3797000   500.00336     -1.3129883e+08 -4054.1601      1477.6006    
   3798000   499.95505     -1.3129858e+08 -4050.6453      1477.6149    
   3799000   499.94591     -1.3129853e+08 -4044.0513      1477.6291    
   3800000   500.00178     -1.3129808e+08 -4039.1998      1477.6434    
   3801000   499.98306     -1.3129809e+08 -4045.648       1477.6576    
   3802000   499.91997     -1.31298e+08   -4053.781       1477.6719    
   3803000   499.95189     -1.3129762e+08 -4050.4877      1477.6861    
   3804000   499.99435     -1.3129738e+08 -4054.5637      1477.7003    
   3805000   499.96989     -1.312972e+08  -4045.583       1477.7146    
   3806000   499.92003     -1.3129719e+08 -4048.2861      1477.7288    
   3807000   499.97731     -1.312978e+08  -4045.1697      1477.7431    
   3808000   500.02754     -1.312976e+08  -4048.1793      1477.7573    
   3809000   500.01438     -1.3129751e+08 -4061.6029      1477.7716    
   3810000   499.9574      -1.3129717e+08 -4066.2955      1477.7858    
   3811000   499.97754     -1.3129751e+08 -4062.5116      1477.8       
   3812000   499.89712     -1.3129725e+08 -4063.9945      1477.8143    
   3813000   499.90602     -1.3129741e+08 -4063.7932      1477.8285    
   3814000   499.90364     -1.3129683e+08 -4067.4989      1477.8428    
   3815000   499.84739     -1.3129659e+08 -4061.5823      1477.857     
   3816000   499.94914     -1.3129721e+08 -4073.3597      1477.8713    
   3817000   499.94669     -1.31297e+08   -4062.8106      1477.8855    
   3818000   499.93915     -1.3129632e+08 -4067.5705      1477.8997    
   3819000   499.96461     -1.3129631e+08 -4063.8333      1477.914     
   3820000   500.04397     -1.3129628e+08 -4080.6933      1477.9282    
   3821000   499.9766      -1.3129533e+08 -4074.539       1477.9425    
   3822000   499.98469     -1.3129582e+08 -4080.6828      1477.9567    
   3823000   499.95681     -1.3129612e+08 -4082.5805      1477.971     
   3824000   500.03176     -1.3129585e+08 -4069.0562      1477.9852    
   3825000   499.97737     -1.3129579e+08 -4083.3191      1477.9994    
   3826000   499.95545     -1.3129536e+08 -4087.5494      1478.0137    
   3827000   500.037       -1.3129562e+08 -4095.1122      1478.0279    
   3828000   499.99172     -1.3129496e+08 -4084.2723      1478.0422    
   3829000   500.0083      -1.3129492e+08 -4078.0438      1478.0564    
   3830000   500.0124      -1.3129492e+08 -4079.0214      1478.0706    
   3831000   499.96533     -1.3129498e+08 -4084.8654      1478.0849    
   3832000   499.96892     -1.3129419e+08 -4086.5318      1478.0991    
   3833000   500.07911     -1.3129488e+08 -4093.8842      1478.1134    
   3834000   500.00505     -1.3129458e+08 -4094.1375      1478.1276    
   3835000   499.92135     -1.312945e+08  -4096.3451      1478.1419    
   3836000   500.0316      -1.3129421e+08 -4090.8805      1478.1561    
   3837000   499.91016     -1.3129366e+08 -4096.377       1478.1703    
   3838000   500.09205     -1.3129397e+08 -4102.1599      1478.1846    
   3839000   500.11735     -1.3129392e+08 -4104.9247      1478.1988    
   3840000   500.05099     -1.3129318e+08 -4108.1455      1478.2131    
   3841000   500.04512     -1.3129367e+08 -4111.8953      1478.2273    
   3842000   499.98223     -1.312935e+08  -4100.741       1478.2416    
   3843000   500.13008     -1.312944e+08  -4104.0862      1478.2558    
   3844000   499.99051     -1.312932e+08  -4098.8696      1478.27      
   3845000   500.01755     -1.3129363e+08 -4107.3063      1478.2843    
   3846000   499.90834     -1.3129312e+08 -4106.8919      1478.2985    
   3847000   500.01254     -1.3129318e+08 -4120.9846      1478.3128    
   3848000   500.09076     -1.3129293e+08 -4125.4382      1478.327     
   3849000   500.12987     -1.3129265e+08 -4122.4199      1478.3413    
   3850000   500.01468     -1.3129213e+08 -4120.9703      1478.3555    
   3851000   499.9278      -1.3129247e+08 -4127.166       1478.3697    
   3852000   500.14927     -1.3129297e+08 -4131.2752      1478.384     
   3853000   500.10068     -1.3129213e+08 -4127.8496      1478.3982    
   3854000   499.96762     -1.3129191e+08 -4129.7542      1478.4125    
   3855000   499.94227     -1.3129217e+08 -4134.3842      1478.4267    
   3856000   499.93039     -1.3129234e+08 -4133.3097      1478.4409    
   3857000   499.97847     -1.3129218e+08 -4129.1138      1478.4552    
   3858000   500.01731     -1.3129222e+08 -4128.9029      1478.4694    
   3859000   499.97102     -1.3129231e+08 -4139.8716      1478.4837    
   3860000   499.94237     -1.3129186e+08 -4152.1364      1478.4979    
   3861000   499.89785     -1.3129114e+08 -4139.1833      1478.5122    
   3862000   499.94369     -1.3129093e+08 -4139.7431      1478.5264    
   3863000   499.97005     -1.312916e+08  -4144.2821      1478.5406    
   3864000   499.93706     -1.312918e+08  -4154.3335      1478.5549    
   3865000   499.93027     -1.3129156e+08 -4155.4806      1478.5691    
   3866000   499.98476     -1.3129138e+08 -4154.0852      1478.5834    
   3867000   500.00838     -1.3129123e+08 -4148.0872      1478.5976    
   3868000   499.99943     -1.3129067e+08 -4143.8712      1478.6119    
   3869000   499.99245     -1.3129069e+08 -4152.6778      1478.6261    
   3870000   500.02139     -1.3129044e+08 -4155.469       1478.6403    
   3871000   500.00757     -1.3128985e+08 -4161.4053      1478.6546    
   3872000   499.96686     -1.3129001e+08 -4161.121       1478.6688    
   3873000   500.06851     -1.3129038e+08 -4165.2261      1478.6831    
   3874000   500.06324     -1.3129048e+08 -4155.3459      1478.6973    
   3875000   499.9695      -1.3128997e+08 -4158.4236      1478.7116    
   3876000   499.97044     -1.3129015e+08 -4155.2618      1478.7258    
   3877000   499.8664      -1.3128979e+08 -4160.6732      1478.74      
   3878000   500.01506     -1.3129019e+08 -4166.4634      1478.7543    
   3879000   500.02785     -1.3128981e+08 -4174.6678      1478.7685    
   3880000   500.01597     -1.312895e+08  -4168.7668      1478.7828    
   3881000   500.11529     -1.312896e+08  -4164.9022      1478.797     
   3882000   499.93698     -1.3128869e+08 -4161.6595      1478.8112    
   3883000   499.96352     -1.3128949e+08 -4169.4761      1478.8255    
   3884000   499.95639     -1.312893e+08  -4171.5203      1478.8397    
   3885000   499.98238     -1.312893e+08  -4174.8852      1478.854     
   3886000   499.88298     -1.3128877e+08 -4172.168       1478.8682    
   3887000   500.04989     -1.3128886e+08 -4167.6874      1478.8825    
   3888000   500.12669     -1.3128918e+08 -4174.006       1478.8967    
   3889000   499.94803     -1.3128842e+08 -4189.8569      1478.9109    
   3890000   500.04039     -1.3128901e+08 -4202.2656      1478.9252    
   3891000   500.11146     -1.312888e+08  -4200.2732      1478.9394    
   3892000   500.06846     -1.3128778e+08 -4177.9151      1478.9537    
   3893000   500.06697     -1.3128791e+08 -4175.4756      1478.9679    
   3894000   499.938       -1.3128809e+08 -4186.4019      1478.9822    
   3895000   499.99159     -1.3128793e+08 -4195.903       1478.9964    
   3896000   500.01906     -1.3128768e+08 -4205.211       1479.0106    
   3897000   499.98791     -1.3128769e+08 -4207.8905      1479.0249    
   3898000   499.99448     -1.3128781e+08 -4201.379       1479.0391    
   3899000   499.8253      -1.3128796e+08 -4200.3322      1479.0534    
   3900000   499.93367     -1.3128759e+08 -4201.7406      1479.0676    
   3901000   499.95262     -1.3128718e+08 -4195.739       1479.0819    
   3902000   499.9055      -1.3128727e+08 -4201.9977      1479.0961    
   3903000   499.90893     -1.3128755e+08 -4206.818       1479.1103    
   3904000   500.0434      -1.3128758e+08 -4211.4432      1479.1246    
   3905000   499.91722     -1.3128704e+08 -4207.8512      1479.1388    
   3906000   499.97039     -1.312872e+08  -4221.7705      1479.1531    
   3907000   499.95205     -1.3128608e+08 -4209.5029      1479.1673    
   3908000   499.92444     -1.3128592e+08 -4206.2889      1479.1815    
   3909000   500.02678     -1.3128661e+08 -4217.7004      1479.1958    
   3910000   499.93456     -1.3128594e+08 -4220.0862      1479.21      
   3911000   499.94568     -1.3128619e+08 -4228.2031      1479.2243    
   3912000   500.03358     -1.3128567e+08 -4228.2347      1479.2385    
   3913000   500.05682     -1.3128602e+08 -4231.958       1479.2528    
   3914000   499.96365     -1.3128589e+08 -4225.6519      1479.267     
   3915000   499.93899     -1.3128557e+08 -4224.3811      1479.2812    
   3916000   500.00166     -1.3128557e+08 -4214.4745      1479.2955    
   3917000   499.96382     -1.3128547e+08 -4228.5333      1479.3097    
   3918000   499.91444     -1.3128548e+08 -4238.8314      1479.324     
   3919000   500.03144     -1.3128544e+08 -4241.3141      1479.3382    
   3920000   500.05119     -1.3128483e+08 -4237.3895      1479.3525    
   3921000   500.00384     -1.3128426e+08 -4238.5806      1479.3667    
   3922000   500.03662     -1.3128469e+08 -4248.3824      1479.3809    
   3923000   500.03934     -1.3128384e+08 -4242.8332      1479.3952    
   3924000   500.07004     -1.3128458e+08 -4252.7893      1479.4094    
   3925000   500.05924     -1.3128453e+08 -4248.3042      1479.4237    
   3926000   499.97824     -1.3128417e+08 -4233.4447      1479.4379    
   3927000   499.99321     -1.3128453e+08 -4228.4107      1479.4522    
   3928000   500.02105     -1.3128426e+08 -4241.0034      1479.4664    
   3929000   500.10072     -1.3128465e+08 -4252.4953      1479.4806    
   3930000   499.98566     -1.3128385e+08 -4236.4882      1479.4949    
   3931000   500.04988     -1.3128395e+08 -4237.0803      1479.5091    
   3932000   500.03162     -1.3128372e+08 -4249.7731      1479.5234    
   3933000   500.11154     -1.3128406e+08 -4254.2922      1479.5376    
   3934000   500.02739     -1.3128405e+08 -4252.8792      1479.5519    
   3935000   500.01489     -1.3128388e+08 -4247.2704      1479.5661    
   3936000   499.92138     -1.3128342e+08 -4245.3016      1479.5803    
   3937000   499.97353     -1.3128321e+08 -4249.6467      1479.5946    
   3938000   499.91399     -1.3128341e+08 -4266.2931      1479.6088    
   3939000   499.93244     -1.312833e+08  -4273.0838      1479.6231    
   3940000   499.9095      -1.3128287e+08 -4269.5323      1479.6373    
   3941000   499.92205     -1.3128302e+08 -4263.6688      1479.6515    
   3942000   499.8999      -1.3128277e+08 -4261.7737      1479.6658    
   3943000   499.94234     -1.3128313e+08 -4271.5352      1479.68      
   3944000   499.93028     -1.3128288e+08 -4278.0163      1479.6943    
   3945000   499.89668     -1.3128261e+08 -4281.7444      1479.7085    
   3946000   499.94025     -1.312821e+08  -4276.167       1479.7228    
   3947000   500.06151     -1.3128224e+08 -4279.4057      1479.737     
   3948000   500.04367     -1.3128191e+08 -4269.3892      1479.7512    
   3949000   499.84767     -1.3128178e+08 -4284.4732      1479.7655    
   3950000   499.94279     -1.3128191e+08 -4294.7918      1479.7797    
   3951000   499.87278     -1.3128123e+08 -4293.5398      1479.794     
   3952000   500.02825     -1.3128211e+08 -4288.2627      1479.8082    
   3953000   499.94241     -1.3128189e+08 -4277.3803      1479.8225    
   3954000   500.00973     -1.3128181e+08 -4281.4522      1479.8367    
   3955000   499.8229      -1.3128124e+08 -4291.9905      1479.8509    
   3956000   499.8769      -1.3128111e+08 -4303.2625      1479.8652    
   3957000   499.95937     -1.3128116e+08 -4296.4641      1479.8794    
   3958000   500.01231     -1.3128078e+08 -4289.6407      1479.8937    
   3959000   500.04169     -1.3128106e+08 -4285.5668      1479.9079    
   3960000   500.09863     -1.3128144e+08 -4294.325       1479.9222    
   3961000   500.13675     -1.3128092e+08 -4308.6686      1479.9364    
   3962000   500.08601     -1.3128041e+08 -4308.6353      1479.9506    
   3963000   500.03406     -1.3128041e+08 -4308.2117      1479.9649    
   3964000   499.90711     -1.3128015e+08 -4300.0865      1479.9791    
   3965000   500.03361     -1.3128043e+08 -4303.5449      1479.9934    
   3966000   500.04659     -1.3128002e+08 -4314.5756      1480.0076    
   3967000   500.01409     -1.3127983e+08 -4318.4693      1480.0218    
   3968000   500.02972     -1.3127976e+08 -4314.4708      1480.0361    
   3969000   500.04714     -1.3127949e+08 -4311.297       1480.0503    
   3970000   500.02465     -1.312793e+08  -4316.4163      1480.0646    
   3971000   499.98347     -1.3127888e+08 -4312.1887      1480.0788    
   3972000   499.96887     -1.3127923e+08 -4321.0264      1480.0931    
   3973000   500.10244     -1.3127914e+08 -4324.5101      1480.1073    
   3974000   500.07707     -1.3127914e+08 -4325.6045      1480.1215    
   3975000   500.07805     -1.312795e+08  -4318.3085      1480.1358    
   3976000   499.99284     -1.3127906e+08 -4317.8289      1480.15      
   3977000   500.0524      -1.3127919e+08 -4328.8011      1480.1643    
   3978000   500.0307      -1.3127895e+08 -4339.8235      1480.1785    
   3979000   499.93078     -1.3127864e+08 -4340.1961      1480.1928    
   3980000   499.96953     -1.3127901e+08 -4340.6462      1480.207     
   3981000   500.06075     -1.3127842e+08 -4331.0408      1480.2212    
