LAMMPS (23 Jun 2022)
KOKKOS mode is enabled (src/KOKKOS/kokkos.cpp:105)
  will use up to 4 GPU(s) per node
  using 1 OpenMP thread(s) per MPI task
package kokkos
package kokkos neigh half newton off
#LAMMPS input file

# ------------------------ INITIALIZATION ----------------------------
processors    * * *
units         metal
dimension    3
boundary    p    p    p
atom_style   charge
atom_modify map array sort 0 1

#--------------------------- LAMMPS Data File--------------------------

read_data    relaxed_step.lmp #reset_relaxed.lmp # model_4.lmp # pre_strained.lmp # High_sep_Cu_45.lmp # Cu_111_FR_45_MIN.lmp
Reading data file ...
  orthogonal box = (-314.8477 -522.43942 600) to (1109.3869 540.14923 1100)
  4 by 4 by 2 MPI processor grid
  reading atoms ...
  37948320 atoms
  reading velocities ...
  37948320 velocities
  read_data CPU = 134.998 seconds
#read_dump   dump.min_1862000.lammpstrj 1862000 x y z vx vy vz
variable  temp equal 400
variable  temp_init equal ${temp}*2
variable  temp_init equal 400*2
variable  sratex equal 5e-6 # in 1/ps (0.5 strain after 10ns)
# ------------------------ FORCE FIELDS ------------------------------
pair_style    eam/alloy
pair_coeff    * * Cu01.eam.alloy.txt Cu # Cu

#------------------------- SETTINGS ---------------------------------

#change_box        all x scale 1.015 remap units box

compute csym all centro/atom fcc
#compute peratom all pe/atom

# compute stresses
#compute       sf all stress/atom NULL

#-------------For Lorentz Forces from QEq----------------------------
# Apply forces
#variable qfx atomfile input_fx_new.txt
#variable qfy atomfile input_fy_new.txt
#variable qfz atomfile input_fz_new.txt
#variable qe atom  -(x*v_qfx+y*v_qfy+z*v_qfz)

#fix force_q1 all addforce v_qfx v_qfy v_qfz energy v_qe
#fix_modify force_q1 energy yes

#delete_atoms group exclude
#fix freez hold setforce 0 0 0
#fix_modify force_q2 energy yes
thermo 1000
thermo_style custom step temp pe press lx
thermo_modify flush yes
#min_style fire
#minimize 0.0 1e-4 100000 100000
#--------Thermal Relax---------------------------
velocity all create ${temp_init} 100 rot no dist gaussian
velocity all create 800 100 rot no dist gaussian
timestep  0.002
fix 1 all langevin ${temp} ${temp} 5 100
fix 1 all langevin 400 ${temp} 5 100
fix 1 all langevin 400 400 5 100
fix ensemble all nve
run 50000
Neighbor list info ...
  update every 1 steps, delay 10 steps, check yes
  max neighbors/atom: 2000, page size: 100000
  master list distance cutoff = 7.506786
  ghost atom cutoff = 7.506786
  binsize = 7.506786, bins = 190 142 67
  2 neighbor lists, perpetual/occasional/extra = 1 1 0
  (1) pair eam/alloy/kk, perpetual
      attributes: half, newton off, kokkos_device
      pair build: half/bin/kk/device
      stencil: full/bin/3d
      bin: kk/device
  (2) compute centro/atom, occasional
      attributes: full, newton off
      pair build: full/bin/atomonly
      stencil: full/bin/3d
      bin: standard
Per MPI rank memory allocation (min/avg/max) = 419 | 460.3 | 502.1 Mbytes
   Step          Temp          PotEng         Press            Lx      
         0   800           -1.3404495e+08  5196.3763      1424.2346    
      1000   400.35457     -1.3208672e+08  8672.2115      1424.2346    
      2000   396.90036     -1.3206678e+08  3417.4485      1424.2346    
      3000   392.73409     -1.3202567e+08 -930.32061      1424.2346    
      4000   397.16324     -1.3202595e+08  739.11689      1424.2346    
      5000   400.42289     -1.320389e+08   3158.4832      1424.2346    
      6000   401.49879     -1.3204852e+08  5376.2457      1424.2346    
      7000   400.74438     -1.3204958e+08  5131.4225      1424.2346    
      8000   399.70007     -1.3204564e+08  3836.6622      1424.2346    
      9000   398.64144     -1.3203724e+08  2583.8747      1424.2346    
     10000   398.8632      -1.3203263e+08  2319.0775      1424.2346    
     11000   399.87151     -1.3203511e+08  2982.9924      1424.2346    
     12000   400.42498     -1.3203832e+08  3700.148       1424.2346    
     13000   400.55879     -1.3204152e+08  4109.7493      1424.2346    
     14000   400.22719     -1.3204132e+08  3843.4822      1424.2346    
     15000   399.90611     -1.3204007e+08  3507.7694      1424.2346    
     16000   399.66925     -1.320379e+08   3202.3503      1424.2346    
     17000   399.89606     -1.3203797e+08  3329.6347      1424.2346    
     18000   400.05567     -1.3203885e+08  3485.8046      1424.2346    
     19000   400.24728     -1.3203989e+08  3677.113       1424.2346    
     20000   400.12055     -1.3203997e+08  3622.5719      1424.2346    
     21000   399.97331     -1.3203923e+08  3548.0569      1424.2346    
     22000   399.92202     -1.3203859e+08  3433.8251      1424.2346    
     23000   399.92949     -1.320388e+08   3426.2853      1424.2346    
     24000   399.96326     -1.3203903e+08  3453.4113      1424.2346    
     25000   399.98686     -1.3203884e+08  3505.1779      1424.2346    
     26000   400.02298     -1.3203913e+08  3521.2613      1424.2346    
     27000   400.09748     -1.3203928e+08  3512.4118      1424.2346    
     28000   399.97237     -1.3203903e+08  3493.0426      1424.2346    
     29000   400.09981     -1.3203921e+08  3479.1684      1424.2346    
     30000   400.00874     -1.3203891e+08  3484.465       1424.2346    
     31000   399.98612     -1.3203897e+08  3488.6162      1424.2346    
     32000   399.96488     -1.32039e+08    3506.6506      1424.2346    
     33000   399.92489     -1.320391e+08   3499.2736      1424.2346    
     34000   400.00454     -1.3203966e+08  3505.9305      1424.2346    
     35000   399.87709     -1.3203876e+08  3494.5972      1424.2346    
     36000   399.99019     -1.3203987e+08  3487.2901      1424.2346    
     37000   399.95945     -1.3203959e+08  3493.5801      1424.2346    
     38000   400.00812     -1.3203935e+08  3502.8219      1424.2346    
     39000   399.91252     -1.3203877e+08  3502.6833      1424.2346    
     40000   399.98464     -1.3203902e+08  3502.9049      1424.2346    
     41000   399.97349     -1.3203893e+08  3499.4596      1424.2346    
     42000   399.96314     -1.3203895e+08  3499.2168      1424.2346    
     43000   400.0768      -1.3203902e+08  3505.9845      1424.2346    
     44000   400.11926     -1.3203915e+08  3500.4435      1424.2346    
     45000   400.0022      -1.3203874e+08  3495.0173      1424.2346    
     46000   400.09072     -1.3203889e+08  3493.6714      1424.2346    
     47000   400.03899     -1.3203894e+08  3494.9587      1424.2346    
     48000   400.04534     -1.3203892e+08  3496.4182      1424.2346    
     49000   399.98062     -1.3203866e+08  3496.2879      1424.2346    
     50000   400.03967     -1.32039e+08    3501.3435      1424.2346    
Loop time of 681.069 on 32 procs for 50000 steps with 37948320 atoms

Performance: 12.686 ns/day, 1.892 hours/ns, 73.414 timesteps/s
72.4% CPU use with 32 MPI tasks x 1 OpenMP threads

MPI task timing breakdown:
Section |  min time  |  avg time  |  max time  |%varavg| %total
---------------------------------------------------------------
Pair    | 232.85     | 247.21     | 261.13     |  55.5 | 36.30
Neigh   | 26.14      | 39.122     | 52.256     | 132.3 |  5.74
Comm    | 41.743     | 54.784     | 67.471     | 160.3 |  8.04
Output  | 0.014092   | 0.57278    | 1.0283     |  44.0 |  0.08
Modify  | 190.98     | 264.88     | 341.59     | 429.1 | 38.89
Other   |            | 74.5       |            |       | 10.94

Nlocal:    1.18588e+06 ave 1.50519e+06 max      855309 min
Histogram: 16 0 0 0 0 0 0 0 0 16
Nghost:         185142 ave      217382 max      152082 min
Histogram: 16 0 0 0 0 0 0 0 0 16
Neighs:    8.59012e+07 ave 1.09036e+08 max 6.19629e+07 min
Histogram: 16 0 0 0 0 0 0 0 0 16
FullNghs:            0 ave           0 max           0 min
Histogram: 32 0 0 0 0 0 0 0 0 0

Total # of neighbors = 2.7488373e+09
Ave neighs/atom = 72.436336
Neighbor list builds = 974
Dangerous builds = 0
unfix ensemble
write_data ${temp}_relaxed_config.lmp
write_data 400_relaxed_config.lmp
System init for write_data ...
#unfix freez
######################################
## NVT Langevin ##
#variable a loop 50
#label loop

#variable Ti equal ${temp}+($a-1)*4
#variable Tf equal ${temp}+$a*4
#reset_ids
#change_box all x scale ${eps} remap units box
fix        2 all deform 1 x erate ${sratex} units box remap x
fix        2 all deform 1 x erate 5e-06 units box remap x
#fix 1 all langevin ${temp} ${temp} 5 98

# Write dump file
#dump        shear all custom 500000 dump.min_*.lammpstrj id x y z # vx vy vz

#dump        defect all custom 100 dump.defect_*.lammpstrj id x y z c_csym
#dump_modify defect thresh c_csym <= 10 thresh c_csym > 4

fix         ensemble all nve
run 5000000
Per MPI rank memory allocation (min/avg/max) = 418.9 | 460.2 | 502 Mbytes
   Step          Temp          PotEng         Press            Lx      
     50000   400.03967     -1.32039e+08    3501.3435      1424.2346    
     51000   399.9704      -1.3203934e+08  3492.048       1424.2488    
     52000   400.01692     -1.320389e+08   3481.0746      1424.2631    
     53000   400.06018     -1.3203925e+08  3481.8718      1424.2773    
     54000   400.01731     -1.3203934e+08  3481.0287      1424.2915    
     55000   400.00097     -1.3203934e+08  3480.0432      1424.3058    
     56000   400.08186     -1.3203935e+08  3471.967       1424.32      
     57000   399.9865      -1.3203898e+08  3480.9991      1424.3343    
     58000   399.89482     -1.3203885e+08  3477.2317      1424.3485    
     59000   400.00652     -1.3203944e+08  3476.608       1424.3628    
     60000   399.96602     -1.3203883e+08  3467.5552      1424.377     
     61000   400.01299     -1.3203909e+08  3459.5747      1424.3912    
     62000   399.99327     -1.3203927e+08  3458.2884      1424.4055    
     63000   400.03216     -1.3203874e+08  3457.6073      1424.4197    
     64000   400.02073     -1.320387e+08   3464.6836      1424.434     
     65000   399.94769     -1.3203872e+08  3466.2832      1424.4482    
     66000   400.06273     -1.320389e+08   3462.8155      1424.4625    
     67000   400.01169     -1.3203876e+08  3454.5789      1424.4767    
     68000   400.05982     -1.3203915e+08  3448.9647      1424.4909    
     69000   399.9683      -1.320387e+08   3430.7331      1424.5052    
     70000   400.03928     -1.3203842e+08  3437.8562      1424.5194    
     71000   400.00887     -1.3203896e+08  3436.9718      1424.5337    
     72000   400.09017     -1.3203927e+08  3447.9017      1424.5479    
     73000   400.04195     -1.3203924e+08  3435.9286      1424.5622    
     74000   399.93827     -1.3203917e+08  3431.3619      1424.5764    
     75000   399.9554      -1.3203936e+08  3408.165       1424.5906    
     76000   399.90773     -1.3203886e+08  3407.8895      1424.6049    
     77000   399.94265     -1.3203919e+08  3416.4427      1424.6191    
     78000   399.88772     -1.3203925e+08  3427.4541      1424.6334    
     79000   399.9525      -1.3203957e+08  3420.9686      1424.6476    
     80000   399.97027     -1.3203915e+08  3412.5961      1424.6618    
     81000   400.01832     -1.3203917e+08  3398.5347      1424.6761    
     82000   399.93859     -1.3203856e+08  3393.8124      1424.6903    
     83000   400.07143     -1.3203888e+08  3407.5701      1424.7046    
     84000   399.99391     -1.3203902e+08  3402.6433      1424.7188    
     85000   399.98499     -1.3203889e+08  3400.0756      1424.7331    
     86000   400.03286     -1.3203931e+08  3387.8525      1424.7473    
     87000   400.01215     -1.320392e+08   3386.1453      1424.7615    
     88000   400.02536     -1.3203907e+08  3376.6247      1424.7758    
     89000   400.09603     -1.3203918e+08  3381.6675      1424.79      
     90000   400.079       -1.3203904e+08  3379.0975      1424.8043    
     91000   400.07929     -1.3203861e+08  3386.8522      1424.8185    
     92000   400.056       -1.3203838e+08  3371.4764      1424.8328    
     93000   400.15876     -1.3203879e+08  3370.6886      1424.847     
     94000   400.05063     -1.320386e+08   3373.1067      1424.8612    
     95000   400.13338     -1.3203912e+08  3365.587       1424.8755    
     96000   399.98626     -1.3203828e+08  3364.8227      1424.8897    
     97000   399.9713      -1.3203897e+08  3356.3449      1424.904     
     98000   400.00388     -1.3203906e+08  3360.6573      1424.9182    
     99000   400.04946     -1.3203925e+08  3353.3619      1424.9325    
    100000   399.93209     -1.3203878e+08  3358.8187      1424.9467    
    101000   399.97233     -1.3203899e+08  3352.3593      1424.9609    
    102000   399.96403     -1.3203892e+08  3352.4026      1424.9752    
    103000   399.97402     -1.3203897e+08  3336.7429      1424.9894    
    104000   400.01977     -1.3203885e+08  3337.1514      1425.0037    
    105000   400.00336     -1.3203907e+08  3335.5322      1425.0179    
    106000   399.89817     -1.320389e+08   3338.1116      1425.0322    
    107000   399.87705     -1.3203899e+08  3334.3001      1425.0464    
    108000   399.90574     -1.3203935e+08  3325.7052      1425.0606    
    109000   399.90128     -1.3203933e+08  3327.9423      1425.0749    
    110000   399.91139     -1.3203948e+08  3330.0703      1425.0891    
    111000   399.93605     -1.3203925e+08  3319.4419      1425.1034    
    112000   399.95418     -1.320389e+08   3310.2536      1425.1176    
    113000   399.95572     -1.3203878e+08  3317.2125      1425.1318    
    114000   399.9213      -1.320388e+08   3306.8172      1425.1461    
    115000   399.99657     -1.3203926e+08  3313.5884      1425.1603    
    116000   400.02329     -1.3203913e+08  3321.8472      1425.1746    
    117000   399.99809     -1.3203921e+08  3314.5575      1425.1888    
    118000   399.96481     -1.3203879e+08  3305.703       1425.2031    
    119000   400.0047      -1.3203907e+08  3287.3734      1425.2173    
    120000   399.99048     -1.3203894e+08  3295.4342      1425.2315    
    121000   400.00271     -1.3203899e+08  3300.0076      1425.2458    
    122000   400.09204     -1.3203885e+08  3306.5265      1425.26      
    123000   400.04497     -1.3203868e+08  3295.2054      1425.2743    
    124000   399.99737     -1.3203862e+08  3289.8286      1425.2885    
    125000   399.9495      -1.320387e+08   3281.1009      1425.3028    
    126000   400.05835     -1.3203891e+08  3283.272       1425.317     
    127000   399.99967     -1.3203898e+08  3279.8672      1425.3312    
    128000   400.03141     -1.3203896e+08  3273.5648      1425.3455    
    129000   400.12303     -1.3203927e+08  3282.3169      1425.3597    
    130000   400.08655     -1.3203895e+08  3279.268       1425.374     
    131000   400.05257     -1.320388e+08   3267.9266      1425.3882    
    132000   400.01348     -1.3203886e+08  3266.1823      1425.4025    
    133000   400.02631     -1.3203876e+08  3253.2343      1425.4167    
    134000   400.03864     -1.3203856e+08  3257.7094      1425.4309    
    135000   400.04783     -1.3203861e+08  3249.842       1425.4452    
    136000   399.96842     -1.3203834e+08  3245.3165      1425.4594    
    137000   399.94331     -1.3203868e+08  3244.7006      1425.4737    
    138000   400.00438     -1.3203909e+08  3236.5047      1425.4879    
    139000   399.94659     -1.3203907e+08  3248.9158      1425.5021    
    140000   399.9607      -1.3203944e+08  3253.5234      1425.5164    
    141000   399.98752     -1.3203883e+08  3254.4021      1425.5306    
    142000   400.00717     -1.3203916e+08  3248.7684      1425.5449    
    143000   399.86823     -1.3203873e+08  3228.3308      1425.5591    
    144000   400.00037     -1.3203898e+08  3214.7411      1425.5734    
    145000   399.95371     -1.3203853e+08  3227.3002      1425.5876    
    146000   400.04293     -1.3203899e+08  3218.6658      1425.6018    
    147000   399.95872     -1.3203858e+08  3222.0131      1425.6161    
    148000   400.0402      -1.3203871e+08  3210.6982      1425.6303    
    149000   400.08377     -1.3203888e+08  3208.166       1425.6446    
    150000   400.06466     -1.3203845e+08  3203.4798      1425.6588    
    151000   400.01605     -1.3203823e+08  3213.4557      1425.6731    
    152000   400.05286     -1.3203873e+08  3201.723       1425.6873    
    153000   400.04695     -1.3203855e+08  3208.4856      1425.7015    
    154000   399.97393     -1.3203835e+08  3187.7812      1425.7158    
    155000   399.97803     -1.3203858e+08  3199.7715      1425.73      
    156000   399.99412     -1.3203851e+08  3190.5367      1425.7443    
    157000   399.98291     -1.3203851e+08  3205.7985      1425.7585    
    158000   399.92809     -1.3203843e+08  3194.1406      1425.7728    
    159000   399.93964     -1.3203836e+08  3187.4638      1425.787     
    160000   400.02737     -1.3203879e+08  3180.401       1425.8012    
    161000   399.96455     -1.3203864e+08  3186.3514      1425.8155    
    162000   400.00688     -1.3203887e+08  3189.6773      1425.8297    
    163000   399.95975     -1.320389e+08   3183.2173      1425.844     
    164000   399.9676      -1.3203909e+08  3171.7296      1425.8582    
    165000   399.9528      -1.3203896e+08  3167.3085      1425.8724    
    166000   400.00556     -1.320389e+08   3164.0207      1425.8867    
    167000   399.95792     -1.3203889e+08  3161.1556      1425.9009    
    168000   400.01877     -1.3203898e+08  3157.1991      1425.9152    
    169000   399.94783     -1.3203848e+08  3161.6984      1425.9294    
    170000   399.98246     -1.3203854e+08  3155.5748      1425.9437    
    171000   399.91067     -1.3203864e+08  3165.4719      1425.9579    
    172000   399.8445      -1.3203866e+08  3166.4442      1425.9721    
    173000   399.91109     -1.3203923e+08  3149.94        1425.9864    
    174000   399.92253     -1.3203891e+08  3146.9947      1426.0006    
    175000   399.90777     -1.320386e+08   3143.2568      1426.0149    
    176000   399.92706     -1.3203875e+08  3126.0792      1426.0291    
    177000   399.93222     -1.3203822e+08  3124.9593      1426.0434    
    178000   400.00273     -1.3203822e+08  3137.5317      1426.0576    
    179000   400.0853      -1.3203824e+08  3138.0113      1426.0718    
    180000   400.02507     -1.3203821e+08  3134.4431      1426.0861    
    181000   400.06413     -1.3203851e+08  3123.8384      1426.1003    
    182000   399.8976      -1.3203833e+08  3122.9995      1426.1146    
    183000   400.0012      -1.3203828e+08  3120.701       1426.1288    
    184000   400.01305     -1.3203846e+08  3119.326       1426.1431    
    185000   400.00432     -1.3203826e+08  3107.1336      1426.1573    
    186000   399.98865     -1.3203822e+08  3107.3608      1426.1715    
    187000   400.03372     -1.3203853e+08  3101.9088      1426.1858    
    188000   400.02796     -1.3203864e+08  3106.2476      1426.2       
    189000   399.96728     -1.3203855e+08  3102.7028      1426.2143    
    190000   400.06112     -1.320387e+08   3102.7552      1426.2285    
    191000   400.06628     -1.3203866e+08  3107.0348      1426.2428    
    192000   400.00087     -1.3203784e+08  3107.2449      1426.257     
    193000   399.98965     -1.32038e+08    3090.0742      1426.2712    
    194000   400.05386     -1.3203813e+08  3077.1588      1426.2855    
    195000   399.98703     -1.320378e+08   3073.8868      1426.2997    
    196000   400.06089     -1.3203813e+08  3084.0604      1426.314     
    197000   400.06826     -1.3203792e+08  3085.4651      1426.3282    
    198000   400.14253     -1.3203874e+08  3082.2159      1426.3424    
    199000   400.05515     -1.3203822e+08  3080.7908      1426.3567    
    200000   399.99923     -1.320383e+08   3073.5875      1426.3709    
    201000   400.03209     -1.3203853e+08  3062.2662      1426.3852    
    202000   399.96877     -1.3203809e+08  3056.8911      1426.3994    
    203000   400.03072     -1.3203779e+08  3067.9891      1426.4137    
    204000   400.06609     -1.3203805e+08  3068.3959      1426.4279    
    205000   399.95243     -1.3203819e+08  3061.4999      1426.4421    
    206000   399.98226     -1.3203836e+08  3048.076       1426.4564    
    207000   399.89694     -1.3203852e+08  3038.4739      1426.4706    
    208000   399.92237     -1.3203883e+08  3039.7111      1426.4849    
    209000   399.9463      -1.3203875e+08  3047.8053      1426.4991    
    210000   400.03431     -1.3203885e+08  3048.2432      1426.5134    
    211000   399.94564     -1.3203831e+08  3046.2859      1426.5276    
    212000   399.99175     -1.3203874e+08  3035.7878      1426.5418    
    213000   400.03689     -1.320384e+08   3035.3441      1426.5561    
    214000   400.01431     -1.3203861e+08  3024.1409      1426.5703    
    215000   399.94763     -1.3203804e+08  3014.7705      1426.5846    
    216000   400.01031     -1.3203831e+08  3025.7534      1426.5988    
    217000   400.05175     -1.3203835e+08  3025.2515      1426.6131    
    218000   400.02721     -1.3203808e+08  3031.094       1426.6273    
    219000   400.11983     -1.3203855e+08  3031.2627      1426.6415    
    220000   400.01711     -1.3203837e+08  3021.9103      1426.6558    
    221000   400.00878     -1.3203822e+08  3008.3932      1426.67      
    222000   399.91123     -1.3203806e+08  3009.7709      1426.6843    
    223000   399.90742     -1.3203798e+08  3009.2825      1426.6985    
    224000   399.9909      -1.3203835e+08  3003.9649      1426.7127    
    225000   399.97995     -1.3203794e+08  2997.1334      1426.727     
    226000   399.99568     -1.320381e+08   3001.4661      1426.7412    
    227000   399.9856      -1.3203786e+08  2995.419       1426.7555    
    228000   400.0138      -1.3203806e+08  2998.0879      1426.7697    
    229000   399.92972     -1.3203774e+08  2996.5583      1426.784     
    230000   400.0209      -1.3203867e+08  2993.5939      1426.7982    
    231000   400.07098     -1.3203838e+08  2986.9414      1426.8124    
    232000   399.91975     -1.3203805e+08  2976.1541      1426.8267    
    233000   400.01317     -1.3203812e+08  2972.5197      1426.8409    
    234000   399.96918     -1.3203829e+08  2979.6723      1426.8552    
    235000   399.97676     -1.3203788e+08  2984.6598      1426.8694    
    236000   399.93968     -1.3203802e+08  2975.915       1426.8837    
    237000   400.01471     -1.320378e+08   2972.0308      1426.8979    
    238000   399.9704      -1.3203822e+08  2956.8329      1426.9121    
    239000   399.95574     -1.3203792e+08  2954.6633      1426.9264    
    240000   399.96762     -1.3203833e+08  2952.1771      1426.9406    
    241000   400.04503     -1.320387e+08   2958.2583      1426.9549    
    242000   400.04209     -1.3203878e+08  2957.8651      1426.9691    
    243000   399.95941     -1.3203793e+08  2956.4027      1426.9834    
    244000   399.97182     -1.3203804e+08  2944.0106      1426.9976    
    245000   399.92313     -1.3203791e+08  2934.052       1427.0118    
    246000   400.01797     -1.3203808e+08  2939.7916      1427.0261    
    247000   399.9473      -1.3203804e+08  2938.5588      1427.0403    
    248000   399.98776     -1.3203777e+08  2952.4409      1427.0546    
    249000   399.8678      -1.320382e+08   2937.9757      1427.0688    
    250000   399.91323     -1.3203785e+08  2939.2214      1427.083     
    251000   399.91682     -1.3203796e+08  2931.2733      1427.0973    
    252000   400.04068     -1.320379e+08   2926.9148      1427.1115    
    253000   399.99019     -1.3203745e+08  2921.5179      1427.1258    
    254000   400.04165     -1.3203757e+08  2916.5897      1427.14      
    255000   400.08209     -1.3203787e+08  2916.1171      1427.1543    
    256000   400.04429     -1.3203793e+08  2905.17        1427.1685    
    257000   400.04203     -1.3203804e+08  2912.734       1427.1827    
    258000   399.95535     -1.3203763e+08  2903.6521      1427.197     
    259000   400.05708     -1.3203812e+08  2900.6678      1427.2112    
    260000   400.04015     -1.3203765e+08  2904.001       1427.2255    
    261000   400.01702     -1.3203742e+08  2898.6219      1427.2397    
    262000   399.9947      -1.3203763e+08  2897.1431      1427.254     
    263000   400.01664     -1.3203756e+08  2900.4629      1427.2682    
    264000   399.97726     -1.3203768e+08  2893.0665      1427.2824    
    265000   399.97003     -1.3203793e+08  2890.9438      1427.2967    
    266000   400.0522      -1.3203789e+08  2882.3455      1427.3109    
    267000   400.0139      -1.3203773e+08  2887.3244      1427.3252    
    268000   400.05039     -1.3203767e+08  2888.3184      1427.3394    
    269000   400.02361     -1.3203744e+08  2879.5387      1427.3537    
    270000   399.97635     -1.3203785e+08  2867.1115      1427.3679    
    271000   399.98691     -1.3203782e+08  2871.7339      1427.3821    
    272000   399.98208     -1.3203796e+08  2856.7464      1427.3964    
    273000   399.96919     -1.3203753e+08  2869.6793      1427.4106    
    274000   400.06325     -1.3203757e+08  2872.1488      1427.4249    
    275000   400.02238     -1.320376e+08   2867.3463      1427.4391    
    276000   400.01308     -1.3203744e+08  2857.2533      1427.4533    
    277000   400.04479     -1.3203742e+08  2849.643       1427.4676    
    278000   400.01642     -1.3203783e+08  2844.3092      1427.4818    
    279000   400.00831     -1.3203734e+08  2848.0214      1427.4961    
    280000   399.93595     -1.3203735e+08  2855.8503      1427.5103    
    281000   400.07302     -1.3203778e+08  2852.3194      1427.5246    
    282000   400.04584     -1.3203756e+08  2830.5175      1427.5388    
    283000   400.06767     -1.3203767e+08  2835.0288      1427.553     
    284000   399.93512     -1.3203729e+08  2826.518       1427.5673    
    285000   399.95145     -1.3203749e+08  2824.9701      1427.5815    
    286000   399.95174     -1.320376e+08   2829.9894      1427.5958    
    287000   400.04281     -1.3203772e+08  2834.8591      1427.61      
    288000   399.95001     -1.3203765e+08  2839.7706      1427.6243    
    289000   400.06186     -1.3203781e+08  2827.6066      1427.6385    
    290000   400.02115     -1.320377e+08   2820.3197      1427.6527    
    291000   400.03749     -1.3203759e+08  2812.5557      1427.667     
    292000   400.04271     -1.3203739e+08  2813.6387      1427.6812    
    293000   400.12058     -1.3203751e+08  2810.2996      1427.6955    
    294000   400.02625     -1.3203719e+08  2802.5719      1427.7097    
    295000   400.0502      -1.3203778e+08  2804.2674      1427.724     
    296000   400.04641     -1.3203745e+08  2793.2502      1427.7382    
    297000   400.02416     -1.3203729e+08  2803.6614      1427.7524    
    298000   399.93542     -1.3203717e+08  2795.3662      1427.7667    
    299000   399.99372     -1.3203739e+08  2791.8933      1427.7809    
    300000   399.96281     -1.3203724e+08  2791.1505      1427.7952    
    301000   400.03215     -1.3203717e+08  2795.8924      1427.8094    
    302000   400.02216     -1.3203706e+08  2788.2301      1427.8237    
    303000   400.04251     -1.3203741e+08  2771.792       1427.8379    
    304000   400.04245     -1.3203698e+08  2775.4175      1427.8521    
    305000   400.06857     -1.3203676e+08  2775.5093      1427.8664    
    306000   399.98621     -1.3203727e+08  2779.5407      1427.8806    
    307000   399.99168     -1.3203721e+08  2778.9391      1427.8949    
    308000   399.93827     -1.320375e+08   2775.934       1427.9091    
    309000   400.0015      -1.3203793e+08  2764.6476      1427.9233    
    310000   400.04134     -1.3203809e+08  2760.8081      1427.9376    
    311000   399.98595     -1.3203752e+08  2755.1602      1427.9518    
    312000   400.01594     -1.3203762e+08  2755.2523      1427.9661    
    313000   399.96115     -1.3203705e+08  2743.6193      1427.9803    
    314000   400.08319     -1.3203766e+08  2740.1162      1427.9946    
    315000   399.97987     -1.3203733e+08  2745.6683      1428.0088    
    316000   399.96889     -1.3203726e+08  2744.1585      1428.023     
    317000   399.97787     -1.3203751e+08  2745.2375      1428.0373    
    318000   399.89279     -1.3203685e+08  2753.4726      1428.0515    
    319000   400.04264     -1.3203734e+08  2749.6664      1428.0658    
    320000   400.04579     -1.3203729e+08  2741.8496      1428.08      
    321000   399.99663     -1.3203718e+08  2732.978       1428.0943    
    322000   400.02267     -1.3203716e+08  2722.6276      1428.1085    
    323000   399.97544     -1.3203719e+08  2714.3243      1428.1227    
    324000   399.94264     -1.3203741e+08  2714.7286      1428.137     
    325000   399.99691     -1.3203761e+08  2721.9409      1428.1512    
    326000   400.00437     -1.3203737e+08  2732.1921      1428.1655    
    327000   399.92053     -1.3203695e+08  2722.0079      1428.1797    
    328000   399.98504     -1.3203726e+08  2714.4472      1428.194     
    329000   399.93117     -1.3203713e+08  2709.5693      1428.2082    
    330000   400.01014     -1.3203708e+08  2706.3864      1428.2224    
    331000   400.05054     -1.3203759e+08  2709.435       1428.2367    
    332000   399.97353     -1.320373e+08   2700.2119      1428.2509    
    333000   400.02498     -1.320378e+08   2701.1081      1428.2652    
    334000   399.93459     -1.3203726e+08  2692.8976      1428.2794    
    335000   399.98233     -1.3203729e+08  2691.245       1428.2936    
    336000   399.96595     -1.3203716e+08  2685.7272      1428.3079    
    337000   400.03193     -1.320372e+08   2681.7404      1428.3221    
    338000   399.94816     -1.3203691e+08  2690.0955      1428.3364    
    339000   399.95299     -1.3203701e+08  2679.5685      1428.3506    
    340000   399.9896      -1.32037e+08    2678.1818      1428.3649    
    341000   399.96711     -1.3203694e+08  2663.0897      1428.3791    
    342000   399.91532     -1.3203686e+08  2663.2584      1428.3933    
    343000   399.97516     -1.3203704e+08  2673.3077      1428.4076    
    344000   399.90989     -1.3203652e+08  2669.1281      1428.4218    
    345000   400.08454     -1.3203722e+08  2666.1835      1428.4361    
    346000   399.96742     -1.3203669e+08  2658.314       1428.4503    
    347000   399.94988     -1.3203669e+08  2656.8119      1428.4646    
    348000   399.90574     -1.3203652e+08  2664.8854      1428.4788    
    349000   399.96339     -1.3203633e+08  2659.8982      1428.493     
    350000   399.95514     -1.32037e+08    2649.1798      1428.5073    
    351000   399.98832     -1.320367e+08   2647.065       1428.5215    
    352000   400.06167     -1.3203751e+08  2653.8054      1428.5358    
    353000   400.07809     -1.3203722e+08  2652.4935      1428.55      
    354000   399.96226     -1.3203694e+08  2652.9582      1428.5643    
    355000   399.97913     -1.3203653e+08  2633.6762      1428.5785    
    356000   400.04926     -1.320363e+08   2628.3382      1428.5927    
    357000   400.01973     -1.3203667e+08  2627.981       1428.607     
    358000   400.00461     -1.3203652e+08  2630.8712      1428.6212    
    359000   400.01046     -1.3203673e+08  2629.527       1428.6355    
    360000   400.05643     -1.3203695e+08  2629.5041      1428.6497    
    361000   399.9749      -1.3203691e+08  2618.9176      1428.6639    
    362000   399.98649     -1.3203632e+08  2614.6022      1428.6782    
    363000   400.00987     -1.320365e+08   2614.1945      1428.6924    
    364000   400.03841     -1.3203677e+08  2613.4875      1428.7067    
    365000   399.99448     -1.3203662e+08  2615.4134      1428.7209    
    366000   399.93322     -1.3203637e+08  2620.9683      1428.7352    
    367000   399.94011     -1.3203646e+08  2605.6238      1428.7494    
    368000   399.88315     -1.3203661e+08  2599.4844      1428.7636    
    369000   399.9337      -1.3203672e+08  2590.6154      1428.7779    
    370000   399.9512      -1.3203655e+08  2594.7591      1428.7921    
    371000   399.97857     -1.3203688e+08  2586.9816      1428.8064    
    372000   399.89645     -1.3203684e+08  2591.3965      1428.8206    
    373000   399.88669     -1.3203692e+08  2596.0111      1428.8349    
    374000   400.04351     -1.3203689e+08  2596.9026      1428.8491    
    375000   399.97899     -1.3203627e+08  2592.1784      1428.8633    
    376000   400.00583     -1.3203658e+08  2573.792       1428.8776    
    377000   399.92499     -1.3203627e+08  2575.3972      1428.8918    
    378000   400.0005      -1.3203626e+08  2573.6931      1428.9061    
    379000   399.97138     -1.3203641e+08  2576.2531      1428.9203    
    380000   400.01136     -1.3203607e+08  2576.1154      1428.9346    
    381000   400.04693     -1.3203642e+08  2564.8191      1428.9488    
    382000   399.9599      -1.3203601e+08  2567.0356      1428.963     
    383000   400.01987     -1.3203637e+08  2551.9028      1428.9773    
    384000   400.08359     -1.3203613e+08  2559.7058      1428.9915    
    385000   400.02102     -1.3203658e+08  2545.6637      1429.0058    
    386000   400.09402     -1.3203685e+08  2555.2693      1429.02      
    387000   399.94871     -1.3203631e+08  2552.7061      1429.0343    
    388000   400.00245     -1.3203605e+08  2554.4609      1429.0485    
    389000   399.99566     -1.3203569e+08  2548.798       1429.0627    
    390000   400.03094     -1.3203604e+08  2544.1089      1429.077     
    391000   399.99076     -1.32036e+08    2528.5036      1429.0912    
    392000   399.98938     -1.3203619e+08  2523.5253      1429.1055    
    393000   399.94899     -1.3203617e+08  2525.9309      1429.1197    
    394000   399.9814      -1.3203652e+08  2533.035       1429.1339    
    395000   399.9832      -1.3203637e+08  2538.8676      1429.1482    
    396000   399.98315     -1.3203646e+08  2531.5287      1429.1624    
    397000   399.94679     -1.3203582e+08  2526.5553      1429.1767    
    398000   399.97703     -1.3203632e+08  2528.6727      1429.1909    
    399000   400.04462     -1.3203653e+08  2518.2648      1429.2052    
    400000   399.95915     -1.3203641e+08  2523.0949      1429.2194    
    401000   399.899       -1.3203654e+08  2508.0766      1429.2336    
    402000   400.03022     -1.3203671e+08  2500.7175      1429.2479    
    403000   399.94582     -1.3203613e+08  2502.8097      1429.2621    
    404000   400.00684     -1.3203628e+08  2510.3115      1429.2764    
    405000   399.96825     -1.3203611e+08  2522.9188      1429.2906    
    406000   400.04071     -1.3203664e+08  2509.4007      1429.3049    
    407000   399.9659      -1.3203623e+08  2501.1304      1429.3191    
    408000   399.90003     -1.3203608e+08  2476.9696      1429.3333    
    409000   399.9316      -1.3203619e+08  2477.375       1429.3476    
    410000   399.9877      -1.320365e+08   2477.4583      1429.3618    
    411000   399.90565     -1.3203623e+08  2480.2267      1429.3761    
    412000   399.89073     -1.3203591e+08  2477.4658      1429.3903    
    413000   400.03754     -1.3203607e+08  2470.7457      1429.4046    
    414000   400.03115     -1.3203641e+08  2473.5891      1429.4188    
    415000   400.01257     -1.32036e+08    2480.9761      1429.433     
    416000   400.00753     -1.3203562e+08  2474.5458      1429.4473    
    417000   399.90944     -1.3203555e+08  2458.313       1429.4615    
    418000   399.95034     -1.3203589e+08  2442.3771      1429.4758    
    419000   399.99835     -1.3203588e+08  2449.4174      1429.49      
    420000   399.98111     -1.3203566e+08  2458.1182      1429.5042    
    421000   399.93743     -1.3203581e+08  2462.243       1429.5185    
    422000   399.96474     -1.3203592e+08  2454.2603      1429.5327    
    423000   399.96575     -1.320359e+08   2442.3295      1429.547     
    424000   399.92828     -1.3203595e+08  2446.6814      1429.5612    
    425000   399.94415     -1.3203556e+08  2446.0325      1429.5755    
    426000   399.97252     -1.3203586e+08  2445.5168      1429.5897    
    427000   399.94223     -1.3203594e+08  2440.523       1429.6039    
    428000   399.95758     -1.3203563e+08  2432.7713      1429.6182    
    429000   400.0213      -1.3203586e+08  2421.8858      1429.6324    
    430000   399.92954     -1.3203568e+08  2429.043       1429.6467    
    431000   399.9638      -1.3203575e+08  2424.5375      1429.6609    
    432000   399.99744     -1.3203595e+08  2431.8206      1429.6752    
    433000   400.10038     -1.32036e+08    2428.3415      1429.6894    
    434000   400.06692     -1.320354e+08   2422.626       1429.7036    
    435000   400.02681     -1.3203537e+08  2413.0835      1429.7179    
    436000   400.00928     -1.3203539e+08  2407.5918      1429.7321    
    437000   399.99246     -1.3203545e+08  2413.4881      1429.7464    
    438000   399.96246     -1.3203605e+08  2414.7708      1429.7606    
    439000   400.01508     -1.3203611e+08  2412.0531      1429.7749    
    440000   399.97367     -1.3203584e+08  2404.9654      1429.7891    
    441000   399.93168     -1.3203526e+08  2403.5645      1429.8033    
    442000   400.03093     -1.3203601e+08  2386.5797      1429.8176    
    443000   400.00827     -1.3203561e+08  2386.1154      1429.8318    
    444000   399.99074     -1.3203567e+08  2390.7609      1429.8461    
    445000   399.99934     -1.3203533e+08  2394.0551      1429.8603    
    446000   400.03843     -1.3203546e+08  2382.251       1429.8745    
    447000   400.02399     -1.3203541e+08  2379.0531      1429.8888    
    448000   399.99951     -1.320353e+08   2373.736       1429.903     
    449000   399.95398     -1.3203518e+08  2378.4434      1429.9173    
    450000   399.96146     -1.3203503e+08  2385.51        1429.9315    
    451000   400.01429     -1.3203545e+08  2386.3712      1429.9458    
    452000   400.04713     -1.3203541e+08  2380.0705      1429.96      
    453000   400.00144     -1.3203543e+08  2362.054       1429.9742    
    454000   399.97427     -1.3203544e+08  2362.3564      1429.9885    
    455000   400.05006     -1.3203576e+08  2371.7066      1430.0027    
    456000   400.0272      -1.3203567e+08  2373.8674      1430.017     
    457000   400.05306     -1.3203555e+08  2359.7813      1430.0312    
    458000   400.00207     -1.3203559e+08  2347.8146      1430.0455    
    459000   399.91988     -1.3203534e+08  2339.0844      1430.0597    
    460000   399.91121     -1.3203571e+08  2334.0082      1430.0739    
    461000   399.95525     -1.3203564e+08  2333.8974      1430.0882    
    462000   399.93595     -1.3203504e+08  2335.3721      1430.1024    
    463000   400.05807     -1.3203554e+08  2335.5121      1430.1167    
    464000   400.03734     -1.3203514e+08  2337.4993      1430.1309    
    465000   399.97497     -1.320351e+08   2335.883       1430.1452    
    466000   400.01649     -1.3203509e+08  2334.5741      1430.1594    
    467000   399.99641     -1.3203535e+08  2325.7044      1430.1736    
    468000   400.07375     -1.3203483e+08  2333.5708      1430.1879    
    469000   400.02574     -1.320348e+08   2324.5209      1430.2021    
    470000   400.01743     -1.3203506e+08  2312.4645      1430.2164    
    471000   400.11236     -1.3203478e+08  2315.7059      1430.2306    
    472000   400.00847     -1.3203439e+08  2328.1056      1430.2448    
    473000   400.08114     -1.3203493e+08  2326.9062      1430.2591    
    474000   400.05842     -1.3203507e+08  2316.977       1430.2733    
    475000   400.07044     -1.3203476e+08  2302.6424      1430.2876    
    476000   400.05858     -1.3203497e+08  2304.8465      1430.3018    
    477000   400.01901     -1.3203524e+08  2309.8536      1430.3161    
    478000   400.04536     -1.3203552e+08  2314.6193      1430.3303    
    479000   399.92266     -1.3203519e+08  2304.158       1430.3445    
    480000   399.92785     -1.3203564e+08  2295.0503      1430.3588    
    481000   399.78309     -1.3203489e+08  2288.4801      1430.373     
    482000   399.9126      -1.3203494e+08  2288.7864      1430.3873    
    483000   399.97547     -1.3203516e+08  2281.053       1430.4015    
    484000   400.06456     -1.3203491e+08  2283.6291      1430.4158    
    485000   399.93797     -1.3203497e+08  2277.1022      1430.43      
    486000   400.03485     -1.3203458e+08  2276.6934      1430.4442    
    487000   400.02531     -1.3203461e+08  2271.2613      1430.4585    
    488000   400.01235     -1.3203455e+08  2271.2637      1430.4727    
    489000   399.99787     -1.3203465e+08  2271.2051      1430.487     
    490000   399.93694     -1.3203481e+08  2270.0517      1430.5012    
    491000   400.00277     -1.3203472e+08  2264.8568      1430.5155    
    492000   399.97462     -1.320349e+08   2259.6301      1430.5297    
    493000   399.98221     -1.3203519e+08  2248.9156      1430.5439    
    494000   399.91605     -1.320346e+08   2257.0311      1430.5582    
    495000   399.92018     -1.3203506e+08  2249.39        1430.5724    
    496000   399.96534     -1.3203516e+08  2250.942       1430.5867    
    497000   399.95411     -1.3203512e+08  2255.8627      1430.6009    
    498000   399.91956     -1.3203464e+08  2240.3581      1430.6152    
    499000   399.98423     -1.3203469e+08  2246.9213      1430.6294    
    500000   399.99893     -1.320346e+08   2233.1037      1430.6436    
    501000   399.97979     -1.3203445e+08  2236.9551      1430.6579    
    502000   400.06575     -1.3203485e+08  2227.9353      1430.6721    
    503000   399.98393     -1.3203466e+08  2239.5156      1430.6864    
    504000   399.90162     -1.3203449e+08  2242.4679      1430.7006    
    505000   399.9516      -1.3203446e+08  2235.8146      1430.7148    
    506000   399.96146     -1.3203481e+08  2219.0513      1430.7291    
    507000   400.06822     -1.320348e+08   2210.3395      1430.7433    
    508000   399.94984     -1.3203442e+08  2209.9432      1430.7576    
    509000   399.89733     -1.3203453e+08  2214.4854      1430.7718    
    510000   399.92276     -1.3203474e+08  2212.1184      1430.7861    
    511000   399.96254     -1.3203471e+08  2211.3802      1430.8003    
    512000   399.99433     -1.3203423e+08  2208.2531      1430.8145    
    513000   399.97864     -1.3203422e+08  2206.8084      1430.8288    
    514000   400.04466     -1.3203424e+08  2201.4319      1430.843     
    515000   399.99581     -1.3203389e+08  2191.7567      1430.8573    
    516000   400.03608     -1.3203398e+08  2188.4859      1430.8715    
    517000   399.94003     -1.320341e+08   2190.9826      1430.8858    
    518000   399.95627     -1.3203406e+08  2199.8455      1430.9       
    519000   399.92662     -1.3203406e+08  2201.482       1430.9142    
    520000   399.96964     -1.3203417e+08  2199.3855      1430.9285    
    521000   400.0128      -1.3203419e+08  2182.9885      1430.9427    
    522000   400.02938     -1.3203425e+08  2180.5686      1430.957     
    523000   400.07757     -1.3203401e+08  2174.6317      1430.9712    
    524000   400.02295     -1.3203359e+08  2169.1539      1430.9855    
    525000   400.06848     -1.3203421e+08  2165.271       1430.9997    
    526000   399.95778     -1.3203336e+08  2170.7023      1431.0139    
    527000   400.0827      -1.3203439e+08  2163.106       1431.0282    
    528000   400.00759     -1.3203438e+08  2163.8367      1431.0424    
    529000   400.03914     -1.3203409e+08  2156.1703      1431.0567    
    530000   400.04593     -1.3203366e+08  2160.4092      1431.0709    
    531000   400.02108     -1.3203357e+08  2158.7334      1431.0851    
    532000   400.04674     -1.3203409e+08  2158.9912      1431.0994    
    533000   400.08198     -1.3203369e+08  2152.5995      1431.1136    
    534000   400.0126      -1.320336e+08   2148.1543      1431.1279    
    535000   400.07144     -1.3203408e+08  2135.6945      1431.1421    
    536000   400.00017     -1.3203384e+08  2143.1351      1431.1564    
    537000   400.02825     -1.320339e+08   2141.112       1431.1706    
    538000   400.06663     -1.3203422e+08  2134.6635      1431.1848    
    539000   400.03355     -1.3203392e+08  2131.718       1431.1991    
    540000   399.99771     -1.320339e+08   2121.0924      1431.2133    
    541000   399.94117     -1.3203356e+08  2128.7079      1431.2276    
    542000   399.93304     -1.320334e+08   2122.277       1431.2418    
    543000   400.08999     -1.3203394e+08  2130.2889      1431.2561    
    544000   400.03748     -1.3203383e+08  2120.0768      1431.2703    
    545000   400.04833     -1.3203351e+08  2126.0113      1431.2845    
    546000   400.01505     -1.320336e+08   2107.0829      1431.2988    
    547000   400.01213     -1.3203319e+08  2111.74        1431.313     
    548000   400.03614     -1.3203367e+08  2107.8035      1431.3273    
    549000   399.99824     -1.3203403e+08  2110.8417      1431.3415    
    550000   399.98103     -1.3203404e+08  2106.2814      1431.3558    
    551000   399.88809     -1.3203376e+08  2092.8923      1431.37      
    552000   400.04638     -1.320339e+08   2085.3575      1431.3842    
    553000   400.02801     -1.320339e+08   2087.3947      1431.3985    
    554000   399.94449     -1.3203323e+08  2095.8926      1431.4127    
    555000   400.02592     -1.320335e+08   2098.1858      1431.427     
    556000   400.01152     -1.3203338e+08  2098.7277      1431.4412    
    557000   399.98794     -1.3203337e+08  2093.3844      1431.4554    
    558000   400.00704     -1.3203356e+08  2078.918       1431.4697    
    559000   399.98406     -1.3203415e+08  2068.6162      1431.4839    
    560000   399.8897      -1.3203331e+08  2076.2331      1431.4982    
    561000   399.956       -1.3203361e+08  2077.7043      1431.5124    
    562000   400.02837     -1.3203367e+08  2084.5137      1431.5267    
    563000   399.9763      -1.3203334e+08  2078.1499      1431.5409    
    564000   399.95845     -1.320331e+08   2071.585       1431.5551    
    565000   400.07599     -1.3203346e+08  2059.4538      1431.5694    
    566000   400.05418     -1.3203289e+08  2054.8671      1431.5836    
    567000   400.05851     -1.320329e+08   2055.1574      1431.5979    
    568000   400.09573     -1.3203312e+08  2050.0302      1431.6121    
    569000   400.01037     -1.3203332e+08  2065.6335      1431.6264    
    570000   399.97325     -1.3203327e+08  2063.6088      1431.6406    
    571000   399.89601     -1.3203297e+08  2063.3469      1431.6548    
    572000   399.99623     -1.3203338e+08  2038.0451      1431.6691    
    573000   399.95373     -1.3203356e+08  2038.7107      1431.6833    
    574000   399.96921     -1.3203339e+08  2038.5443      1431.6976    
    575000   399.98893     -1.3203329e+08  2034.9731      1431.7118    
    576000   400.00528     -1.3203291e+08  2024.5114      1431.7261    
    577000   399.98725     -1.3203323e+08  2022.0344      1431.7403    
    578000   399.95068     -1.320329e+08   2024.5344      1431.7545    
    579000   400.04383     -1.3203309e+08  2022.351       1431.7688    
    580000   400.05597     -1.3203272e+08  2032.0838      1431.783     
    581000   399.97647     -1.3203289e+08  2022.6166      1431.7973    
    582000   399.99919     -1.3203321e+08  2022.9661      1431.8115    
    583000   400.03351     -1.3203305e+08  2030.9103      1431.8257    
    584000   399.98458     -1.3203291e+08  2026.1168      1431.84      
    585000   400.03318     -1.3203301e+08  2014.1242      1431.8542    
    586000   400.05876     -1.320326e+08   1997.5865      1431.8685    
    587000   399.99491     -1.3203262e+08  1989.3273      1431.8827    
    588000   400.12341     -1.3203292e+08  1987.7533      1431.897     
    589000   400.0148      -1.3203276e+08  2002.6738      1431.9112    
    590000   400.00949     -1.3203294e+08  1999.2167      1431.9254    
    591000   400.09052     -1.3203297e+08  1997.8785      1431.9397    
    592000   400.05353     -1.3203282e+08  1986.0371      1431.9539    
    593000   399.95547     -1.3203234e+08  1981.1154      1431.9682    
    594000   399.85165     -1.320327e+08   1982.9536      1431.9824    
    595000   399.96691     -1.3203347e+08  1986.5356      1431.9967    
    596000   399.98031     -1.3203308e+08  1983.49        1432.0109    
    597000   399.96201     -1.3203269e+08  1986.0886      1432.0251    
    598000   399.97397     -1.3203268e+08  1977.4591      1432.0394    
    599000   400.00503     -1.3203274e+08  1974.4368      1432.0536    
    600000   400.06667     -1.3203258e+08  1977.3838      1432.0679    
    601000   399.9925      -1.3203229e+08  1982.479       1432.0821    
    602000   400.02127     -1.320327e+08   1972.4016      1432.0964    
    603000   400.02665     -1.3203258e+08  1955.4189      1432.1106    
    604000   400.02159     -1.3203278e+08  1949.1874      1432.1248    
    605000   400.03123     -1.3203301e+08  1945.0605      1432.1391    
    606000   399.99302     -1.3203307e+08  1957.3147      1432.1533    
    607000   400.07366     -1.3203337e+08  1954.0885      1432.1676    
    608000   400.07739     -1.3203315e+08  1950.1656      1432.1818    
    609000   400.00287     -1.3203215e+08  1938.0656      1432.1961    
    610000   400.0157      -1.3203246e+08  1942.2428      1432.2103    
    611000   399.99403     -1.3203203e+08  1939.4791      1432.2245    
    612000   400.04035     -1.3203237e+08  1936.6372      1432.2388    
    613000   400.04023     -1.3203237e+08  1929.5733      1432.253     
    614000   400.10844     -1.320326e+08   1923.2777      1432.2673    
    615000   400.05395     -1.3203208e+08  1925.5545      1432.2815    
    616000   400.06019     -1.3203212e+08  1922.1899      1432.2957    
    617000   400.06327     -1.320322e+08   1936.9413      1432.31      
    618000   400.01231     -1.3203216e+08  1934.5542      1432.3242    
    619000   399.96452     -1.3203216e+08  1932.1724      1432.3385    
    620000   399.95831     -1.3203216e+08  1916.1946      1432.3527    
    621000   400.03196     -1.3203213e+08  1909.3034      1432.367     
    622000   400.07252     -1.3203197e+08  1899.4805      1432.3812    
    623000   400.01522     -1.3203189e+08  1894.8584      1432.3954    
    624000   400.0162      -1.3203224e+08  1914.1158      1432.4097    
    625000   400.01884     -1.3203198e+08  1916.1552      1432.4239    
    626000   400.03776     -1.3203276e+08  1904.9859      1432.4382    
    627000   399.96309     -1.320321e+08   1892.8524      1432.4524    
    628000   399.94063     -1.32032e+08    1900.6188      1432.4667    
    629000   399.95682     -1.3203195e+08  1881.8045      1432.4809    
    630000   399.96459     -1.3203249e+08  1883.9115      1432.4951    
    631000   400.0382      -1.3203228e+08  1880.012       1432.5094    
    632000   399.94239     -1.3203161e+08  1889.3158      1432.5236    
    633000   400.00297     -1.3203165e+08  1889.7812      1432.5379    
    634000   400.052       -1.320318e+08   1879.7274      1432.5521    
    635000   400.058       -1.3203183e+08  1874.7419      1432.5664    
    636000   399.93075     -1.3203166e+08  1874.7558      1432.5806    
    637000   400.01155     -1.320319e+08   1871.0132      1432.5948    
    638000   400.03237     -1.3203201e+08  1871.3715      1432.6091    
    639000   400.04134     -1.3203191e+08  1866.016       1432.6233    
    640000   400.0294      -1.3203173e+08  1854.7419      1432.6376    
    641000   400.03236     -1.3203158e+08  1846.7444      1432.6518    
    642000   399.95259     -1.3203143e+08  1846.9921      1432.666     
    643000   399.94859     -1.3203171e+08  1845.1373      1432.6803    
    644000   400.04177     -1.3203191e+08  1856.6997      1432.6945    
    645000   400.01761     -1.3203185e+08  1864.9447      1432.7088    
    646000   400.0115      -1.3203187e+08  1861.4871      1432.723     
    647000   399.99328     -1.3203226e+08  1842.2076      1432.7373    
    648000   400.01902     -1.3203228e+08  1832.1468      1432.7515    
    649000   399.93355     -1.3203135e+08  1841.5492      1432.7657    
    650000   400.07765     -1.3203185e+08  1846.5056      1432.78      
    651000   400.00103     -1.3203172e+08  1845.873       1432.7942    
    652000   400.03066     -1.3203207e+08  1822.7313      1432.8085    
    653000   400.06828     -1.3203207e+08  1820.7015      1432.8227    
    654000   399.99908     -1.3203156e+08  1822.0864      1432.837     
    655000   399.99924     -1.3203155e+08  1819.0862      1432.8512    
    656000   400.05394     -1.3203139e+08  1816.0982      1432.8654    
    657000   400.01777     -1.3203146e+08  1823.4967      1432.8797    
    658000   400.02235     -1.3203116e+08  1812.9034      1432.8939    
    659000   400.02665     -1.320313e+08   1801.1418      1432.9082    
    660000   399.98767     -1.3203101e+08  1794.4673      1432.9224    
    661000   400.0452      -1.3203148e+08  1801.9348      1432.9367    
    662000   399.99374     -1.3203137e+08  1798.2866      1432.9509    
    663000   400.07812     -1.3203156e+08  1806.4293      1432.9651    
    664000   400.03402     -1.3203105e+08  1798.5812      1432.9794    
    665000   400.01287     -1.3203117e+08  1795.628       1432.9936    
    666000   399.98869     -1.3203099e+08  1787.502       1433.0079    
    667000   400.06434     -1.3203144e+08  1789.958       1433.0221    
    668000   400.05912     -1.3203144e+08  1790.6886      1433.0363    
    669000   400.04526     -1.3203115e+08  1798.5227      1433.0506    
    670000   400.02542     -1.3203131e+08  1794.8725      1433.0648    
    671000   399.99918     -1.3203065e+08  1784.3588      1433.0791    
    672000   400.04448     -1.3203099e+08  1769.5001      1433.0933    
    673000   400.01046     -1.3203052e+08  1764.1053      1433.1076    
    674000   400.10818     -1.3203037e+08  1770.2619      1433.1218    
    675000   400.13656     -1.3203019e+08  1778.6307      1433.136     
    676000   400.10443     -1.3203065e+08  1783.1537      1433.1503    
    677000   400.01075     -1.3203056e+08  1777.2116      1433.1645    
    678000   399.97591     -1.3203069e+08  1756.0036      1433.1788    
    679000   399.97759     -1.3203083e+08  1744.8892      1433.193     
    680000   399.94737     -1.3203097e+08  1749.4012      1433.2073    
    681000   399.92026     -1.3203081e+08  1756.1264      1433.2215    
    682000   400.04663     -1.3203095e+08  1759.6005      1433.2357    
    683000   400.00345     -1.3203097e+08  1756.4681      1433.25      
    684000   399.89714     -1.3203078e+08  1745.3652      1433.2642    
    685000   399.89638     -1.3203098e+08  1730.3495      1433.2785    
    686000   399.89392     -1.3203065e+08  1733.5877      1433.2927    
    687000   399.93432     -1.3203084e+08  1729.1294      1433.307     
    688000   400.01779     -1.320311e+08   1732.8723      1433.3212    
    689000   399.98859     -1.3203083e+08  1740.0015      1433.3354    
    690000   399.96752     -1.3203058e+08  1736.6821      1433.3497    
    691000   399.9241      -1.3203079e+08  1729.8136      1433.3639    
    692000   399.96505     -1.3203094e+08  1719.4735      1433.3782    
    693000   399.86136     -1.3203098e+08  1713.6009      1433.3924    
    694000   399.97973     -1.3203095e+08  1716.5943      1433.4067    
    695000   399.92054     -1.3203084e+08  1718.4779      1433.4209    
    696000   399.96123     -1.3203065e+08  1718.5771      1433.4351    
    697000   400.0446      -1.3203076e+08  1711.0012      1433.4494    
    698000   400.0468      -1.3203049e+08  1715.0043      1433.4636    
    699000   400.05415     -1.320309e+08   1707.3883      1433.4779    
    700000   399.95969     -1.3203011e+08  1705.8146      1433.4921    
    701000   400.0481      -1.3203072e+08  1699.6137      1433.5063    
    702000   400.01391     -1.3203046e+08  1693.9461      1433.5206    
    703000   399.93216     -1.3203026e+08  1694.4489      1433.5348    
    704000   399.99774     -1.3203068e+08  1670.207       1433.5491    
    705000   399.94148     -1.3203027e+08  1688.12        1433.5633    
    706000   399.99085     -1.3203025e+08  1681.9763      1433.5776    
    707000   399.99714     -1.3203022e+08  1694.5168      1433.5918    
    708000   399.96868     -1.3203023e+08  1676.2399      1433.606     
    709000   399.98603     -1.3203063e+08  1676.7105      1433.6203    
    710000   399.92802     -1.3203021e+08  1675.732       1433.6345    
    711000   399.9014      -1.3203047e+08  1675.748       1433.6488    
    712000   399.90313     -1.3203023e+08  1669.9551      1433.663     
    713000   400.05478     -1.3203065e+08  1667.3435      1433.6773    
    714000   400.09455     -1.3203018e+08  1673.5838      1433.6915    
    715000   400.02684     -1.3203002e+08  1673.2561      1433.7057    
    716000   399.98429     -1.3203008e+08  1668.2307      1433.72      
    717000   399.99049     -1.3202975e+08  1665.6987      1433.7342    
    718000   400.04705     -1.3203012e+08  1656.5575      1433.7485    
    719000   400.01436     -1.3203015e+08  1644.8499      1433.7627    
    720000   400.03929     -1.3203028e+08  1642.4204      1433.777     
    721000   399.91321     -1.3202998e+08  1643.5855      1433.7912    
    722000   399.95702     -1.3203002e+08  1644.9413      1433.8054    
    723000   399.93556     -1.3203045e+08  1642.3778      1433.8197    
    724000   399.95655     -1.3203004e+08  1641.3146      1433.8339    
    725000   399.99085     -1.3203009e+08  1626.0372      1433.8482    
    726000   399.93714     -1.3202997e+08  1623.404       1433.8624    
    727000   399.87003     -1.3202965e+08  1632.6545      1433.8766    
    728000   399.95917     -1.320294e+08   1640.2223      1433.8909    
    729000   400.04384     -1.3202989e+08  1630.8703      1433.9051    
    730000   400.05743     -1.3202948e+08  1616.8999      1433.9194    
    731000   400.0715      -1.3202967e+08  1613.0518      1433.9336    
    732000   399.87458     -1.3202983e+08  1614.3568      1433.9479    
    733000   400.01013     -1.3202965e+08  1618.3799      1433.9621    
    734000   400.03951     -1.3202984e+08  1621.4461      1433.9763    
    735000   400.12653     -1.320297e+08   1609.8919      1433.9906    
    736000   400.07359     -1.3202929e+08  1610.8101      1434.0048    
    737000   400.09365     -1.3202922e+08  1596.2756      1434.0191    
    738000   400.03687     -1.3202917e+08  1596.0054      1434.0333    
    739000   400.06747     -1.3202934e+08  1588.6061      1434.0476    
    740000   400.02549     -1.3202945e+08  1591.1858      1434.0618    
    741000   399.96217     -1.320292e+08   1593.3438      1434.076     
    742000   400.01571     -1.3202936e+08  1588.7601      1434.0903    
    743000   399.98666     -1.3202906e+08  1585.5536      1434.1045    
    744000   399.94998     -1.3202939e+08  1588.4424      1434.1188    
    745000   399.9693      -1.3202933e+08  1587.013       1434.133     
    746000   399.9765      -1.3202938e+08  1576.5716      1434.1473    
    747000   399.95287     -1.3202928e+08  1564.6759      1434.1615    
    748000   399.96203     -1.3202947e+08  1568.8822      1434.1757    
    749000   399.95289     -1.3202883e+08  1571.4886      1434.19      
    750000   400.03656     -1.3202946e+08  1576.0467      1434.2042    
    751000   400.02397     -1.3202906e+08  1577.5318      1434.2185    
    752000   400.05408     -1.3202919e+08  1564.0529      1434.2327    
    753000   400.0058      -1.3202923e+08  1557.0233      1434.2469    
    754000   400.02245     -1.3202906e+08  1548.0265      1434.2612    
    755000   400.03898     -1.3202881e+08  1552.8864      1434.2754    
    756000   400.01909     -1.3202886e+08  1559.0862      1434.2897    
    757000   400.01471     -1.3202896e+08  1556.3851      1434.3039    
    758000   400.03466     -1.3202931e+08  1555.3807      1434.3182    
    759000   400.03461     -1.3202919e+08  1544.8064      1434.3324    
    760000   399.9629      -1.3202896e+08  1545.2636      1434.3466    
    761000   400.07573     -1.3202911e+08  1532.7951      1434.3609    
    762000   400.0984      -1.3202903e+08  1542.1897      1434.3751    
    763000   400.00949     -1.3202845e+08  1535.5921      1434.3894    
    764000   399.99603     -1.3202872e+08  1536.0712      1434.4036    
    765000   400.05877     -1.3202885e+08  1533.3377      1434.4179    
    766000   399.88593     -1.3202862e+08  1525.1887      1434.4321    
    767000   400.04652     -1.3202894e+08  1526.6712      1434.4463    
    768000   399.99082     -1.320289e+08   1516.9657      1434.4606    
    769000   399.97906     -1.3202858e+08  1509.49        1434.4748    
    770000   399.99333     -1.3202849e+08  1510.5074      1434.4891    
    771000   399.95957     -1.320286e+08   1515.6776      1434.5033    
    772000   400.05316     -1.3202892e+08  1505.571       1434.5176    
    773000   399.9955      -1.3202855e+08  1513.5852      1434.5318    
    774000   400.02806     -1.3202861e+08  1516.1098      1434.546     
    775000   399.92651     -1.3202819e+08  1511.2891      1434.5603    
    776000   400.0641      -1.3202851e+08  1510.6687      1434.5745    
    777000   399.93918     -1.3202829e+08  1503.3644      1434.5888    
    778000   400.02868     -1.3202878e+08  1490.2827      1434.603     
    779000   400.02044     -1.3202827e+08  1488.0989      1434.6172    
    780000   399.98342     -1.3202838e+08  1487.0161      1434.6315    
    781000   400.04711     -1.3202846e+08  1480.0342      1434.6457    
    782000   400.05548     -1.3202796e+08  1493.4355      1434.66      
    783000   400.02101     -1.3202807e+08  1495.3716      1434.6742    
    784000   400.04372     -1.3202815e+08  1489.8775      1434.6885    
    785000   399.95845     -1.3202784e+08  1479.5444      1434.7027    
    786000   399.97819     -1.3202809e+08  1456.9477      1434.7169    
    787000   400.01448     -1.3202802e+08  1468.0311      1434.7312    
    788000   400.06013     -1.3202793e+08  1477.2926      1434.7454    
    789000   400.01713     -1.3202808e+08  1481.148       1434.7597    
    790000   400.00627     -1.3202805e+08  1473.5155      1434.7739    
    791000   400.03331     -1.3202838e+08  1462.6122      1434.7882    
    792000   400.0503      -1.32028e+08    1454.3783      1434.8024    
    793000   400.026       -1.3202774e+08  1444.7675      1434.8166    
    794000   400.04858     -1.320278e+08   1452.4451      1434.8309    
    795000   399.98773     -1.3202758e+08  1447.4149      1434.8451    
    796000   399.91581     -1.3202798e+08  1448.934       1434.8594    
    797000   399.95654     -1.3202845e+08  1440.9537      1434.8736    
    798000   399.89208     -1.3202797e+08  1438.1007      1434.8879    
    799000   399.91857     -1.3202816e+08  1439.4779      1434.9021    
    800000   400.04791     -1.3202814e+08  1444.7623      1434.9163    
    801000   400.00262     -1.3202782e+08  1447.9175      1434.9306    
    802000   400.0758      -1.3202801e+08  1444.375       1434.9448    
    803000   400.01671     -1.3202829e+08  1436.4744      1434.9591    
    804000   399.93614     -1.3202759e+08  1431.6203      1434.9733    
    805000   399.92668     -1.3202772e+08  1416.6588      1434.9876    
    806000   400.0268      -1.3202764e+08  1419.8015      1435.0018    
    807000   400.01808     -1.3202749e+08  1414.9725      1435.016     
    808000   400.01748     -1.3202748e+08  1404.7977      1435.0303    
    809000   400.02474     -1.3202745e+08  1408.6736      1435.0445    
    810000   400.04673     -1.3202747e+08  1402.1453      1435.0588    
    811000   400.05594     -1.3202774e+08  1397.1162      1435.073     
    812000   400.04178     -1.3202733e+08  1398.0961      1435.0872    
    813000   400.09579     -1.320277e+08   1404.2229      1435.1015    
    814000   399.96683     -1.3202699e+08  1407.8911      1435.1157    
    815000   399.94334     -1.3202744e+08  1396.3037      1435.13      
    816000   400.0905      -1.3202806e+08  1387.9174      1435.1442    
    817000   399.9856      -1.3202787e+08  1389.1989      1435.1585    
    818000   399.95107     -1.3202737e+08  1386.7337      1435.1727    
    819000   400.02047     -1.3202754e+08  1382.781       1435.1869    
    820000   400.04553     -1.3202696e+08  1378.5551      1435.2012    
    821000   400.00457     -1.3202708e+08  1382.7049      1435.2154    
    822000   399.96979     -1.3202694e+08  1377.2559      1435.2297    
    823000   400.03313     -1.3202708e+08  1379.0164      1435.2439    
    824000   399.96053     -1.3202679e+08  1375.2442      1435.2582    
    825000   400.04918     -1.320273e+08   1373.5851      1435.2724    
    826000   399.86352     -1.3202674e+08  1374.8012      1435.2866    
    827000   400.04434     -1.3202732e+08  1361.048       1435.3009    
    828000   400.01407     -1.3202719e+08  1356.2042      1435.3151    
    829000   399.99624     -1.3202709e+08  1355.4326      1435.3294    
    830000   399.94877     -1.3202661e+08  1355.8962      1435.3436    
    831000   399.94252     -1.3202684e+08  1348.1706      1435.3579    
    832000   399.96399     -1.3202668e+08  1352.0503      1435.3721    
    833000   400.07078     -1.3202712e+08  1348.8034      1435.3863    
    834000   399.89556     -1.3202673e+08  1349.8229      1435.4006    
    835000   400.02595     -1.3202726e+08  1338.9471      1435.4148    
    836000   399.96588     -1.3202674e+08  1349.7547      1435.4291    
    837000   399.95349     -1.3202685e+08  1344.7666      1435.4433    
    838000   400.0096      -1.320262e+08   1346.1053      1435.4575    
    839000   400.0946      -1.3202645e+08  1332.5595      1435.4718    
    840000   400.04275     -1.3202631e+08  1320.6363      1435.486     
    841000   400.07416     -1.3202658e+08  1316.6241      1435.5003    
    842000   399.98901     -1.3202626e+08  1325.0743      1435.5145    
    843000   400.03872     -1.3202645e+08  1325.168       1435.5288    
    844000   399.98642     -1.3202624e+08  1318.7335      1435.543     
    845000   400.07816     -1.3202636e+08  1318.5314      1435.5572    
    846000   400.08923     -1.3202612e+08  1316.3435      1435.5715    
    847000   400.08516     -1.320263e+08   1311.7883      1435.5857    
    848000   400.02547     -1.320263e+08   1305.8594      1435.6       
    849000   400.03683     -1.3202626e+08  1303.4336      1435.6142    
    850000   400.06386     -1.3202621e+08  1295.3356      1435.6285    
    851000   400.00265     -1.3202617e+08  1292.5672      1435.6427    
    852000   400.1088      -1.3202613e+08  1307.1231      1435.6569    
    853000   400.07619     -1.3202614e+08  1316.5176      1435.6712    
    854000   400.07633     -1.32026e+08    1309.5937      1435.6854    
    855000   400.09733     -1.3202667e+08  1292.966       1435.6997    
    856000   400.04429     -1.3202642e+08  1278.094       1435.7139    
    857000   399.97203     -1.3202584e+08  1278.7785      1435.7282    
    858000   399.95725     -1.3202595e+08  1281.7881      1435.7424    
    859000   399.95417     -1.3202579e+08  1292.2007      1435.7566    
    860000   400.01303     -1.3202622e+08  1289.7435      1435.7709    
    861000   400.03553     -1.3202646e+08  1282.9315      1435.7851    
    862000   399.99177     -1.3202639e+08  1270.7122      1435.7994    
    863000   399.98657     -1.3202633e+08  1273.3785      1435.8136    
    864000   399.95852     -1.3202623e+08  1266.6009      1435.8278    
    865000   399.93583     -1.3202654e+08  1262.9393      1435.8421    
    866000   399.87662     -1.3202636e+08  1246.1797      1435.8563    
    867000   399.87111     -1.3202638e+08  1249.0158      1435.8706    
    868000   399.90291     -1.3202634e+08  1250.304       1435.8848    
    869000   399.92459     -1.3202653e+08  1269.1267      1435.8991    
    870000   399.86655     -1.3202629e+08  1265.7279      1435.9133    
    871000   399.89939     -1.3202591e+08  1258.8528      1435.9275    
    872000   399.96691     -1.320263e+08   1245.3362      1435.9418    
    873000   400.01992     -1.3202604e+08  1236.6603      1435.956     
    874000   399.96673     -1.3202551e+08  1232.3693      1435.9703    
    875000   399.99831     -1.3202561e+08  1238.6905      1435.9845    
    876000   400.03616     -1.3202544e+08  1246.6159      1435.9988    
    877000   399.94056     -1.3202513e+08  1236.6792      1436.013     
    878000   399.96351     -1.3202575e+08  1228.7571      1436.0272    
    879000   399.98409     -1.3202539e+08  1222.9214      1436.0415    
    880000   399.99233     -1.3202563e+08  1220.8508      1436.0557    
    881000   400.00774     -1.3202596e+08  1220.7851      1436.07      
    882000   399.93722     -1.320257e+08   1223.2255      1436.0842    
    883000   399.92245     -1.3202553e+08  1227.8175      1436.0985    
    884000   399.97819     -1.3202535e+08  1217.0441      1436.1127    
    885000   400.0064      -1.3202527e+08  1211.9324      1436.1269    
    886000   399.98535     -1.3202504e+08  1201.3004      1436.1412    
    887000   400.09081     -1.3202575e+08  1200.3208      1436.1554    
    888000   399.94819     -1.3202483e+08  1199.3586      1436.1697    
    889000   400.05883     -1.3202542e+08  1197.4468      1436.1839    
    890000   399.96107     -1.320254e+08   1205.1585      1436.1982    
    891000   400.03725     -1.320258e+08   1198.5634      1436.2124    
    892000   399.94332     -1.3202543e+08  1200.7591      1436.2266    
    893000   400.00823     -1.3202529e+08  1192.1874      1436.2409    
    894000   399.93001     -1.3202519e+08  1181.4335      1436.2551    
    895000   400.02034     -1.3202537e+08  1192.6609      1436.2694    
    896000   400.03589     -1.3202533e+08  1190.5361      1436.2836    
    897000   400.05489     -1.3202523e+08  1186.2373      1436.2978    
    898000   400.01348     -1.3202534e+08  1179.3103      1436.3121    
    899000   399.98653     -1.3202508e+08  1179.8723      1436.3263    
    900000   399.99336     -1.3202521e+08  1184.0551      1436.3406    
    901000   399.95015     -1.3202515e+08  1168.8813      1436.3548    
    902000   399.94514     -1.3202513e+08  1171.8859      1436.3691    
    903000   399.95561     -1.3202502e+08  1165.0957      1436.3833    
    904000   400.02995     -1.3202519e+08  1162.9198      1436.3975    
    905000   399.91045     -1.3202478e+08  1156.0723      1436.4118    
    906000   399.96028     -1.3202523e+08  1152.542       1436.426     
    907000   399.97043     -1.3202513e+08  1153.8532      1436.4403    
    908000   399.95096     -1.320248e+08   1151.2367      1436.4545    
    909000   399.92178     -1.3202484e+08  1153.5631      1436.4688    
    910000   399.96337     -1.3202503e+08  1151.2357      1436.483     
    911000   399.91362     -1.3202491e+08  1148.0231      1436.4972    
    912000   399.92946     -1.3202478e+08  1137.5361      1436.5115    
    913000   400.00589     -1.3202493e+08  1133.1043      1436.5257    
    914000   399.96059     -1.3202456e+08  1133.968       1436.54      
    915000   399.98353     -1.3202454e+08  1137.3972      1436.5542    
    916000   399.9662      -1.3202436e+08  1132.3183      1436.5685    
    917000   399.92791     -1.3202468e+08  1123.0669      1436.5827    
    918000   399.94924     -1.3202491e+08  1125.1116      1436.5969    
    919000   399.96498     -1.3202452e+08  1121.9287      1436.6112    
    920000   399.9533      -1.3202467e+08  1130.0888      1436.6254    
    921000   400.04312     -1.3202457e+08  1127.789       1436.6397    
    922000   400.00045     -1.3202412e+08  1130.2582      1436.6539    
    923000   400.04271     -1.3202445e+08  1110.2981      1436.6681    
    924000   400.04595     -1.3202443e+08  1111.9688      1436.6824    
    925000   399.98959     -1.3202428e+08  1113.099       1436.6966    
    926000   400.00068     -1.3202462e+08  1114.3603      1436.7109    
    927000   399.95516     -1.3202445e+08  1112.0128      1436.7251    
    928000   400.04894     -1.3202441e+08  1109.6574      1436.7394    
    929000   400.03576     -1.3202407e+08  1100.8958      1436.7536    
    930000   399.93659     -1.3202374e+08  1106.6062      1436.7678    
    931000   399.99709     -1.32024e+08    1097.0042      1436.7821    
    932000   399.98766     -1.3202388e+08  1088.6368      1436.7963    
    933000   399.96402     -1.3202375e+08  1080.5256      1436.8106    
    934000   399.97338     -1.3202393e+08  1088.7277      1436.8248    
    935000   400.0173      -1.3202396e+08  1088.5985      1436.8391    
    936000   400.02899     -1.3202418e+08  1089.4986      1436.8533    
    937000   399.93998     -1.3202386e+08  1080.445       1436.8675    
    938000   399.97295     -1.320238e+08   1074.4181      1436.8818    
    939000   399.92582     -1.3202388e+08  1065.1531      1436.896     
    940000   399.9937      -1.3202397e+08  1066.563       1436.9103    
    941000   399.9613      -1.3202388e+08  1063.3679      1436.9245    
    942000   400.02342     -1.3202413e+08  1063.4961      1436.9388    
    943000   399.98405     -1.3202385e+08  1062.5108      1436.953     
    944000   399.95931     -1.320238e+08   1058.5995      1436.9672    
    945000   399.91727     -1.3202391e+08  1060.6716      1436.9815    
    946000   399.9593      -1.3202396e+08  1061.4371      1436.9957    
    947000   399.99437     -1.3202357e+08  1060.8399      1437.01      
    948000   399.98535     -1.3202334e+08  1054.3309      1437.0242    
    949000   399.9762      -1.3202357e+08  1052.232       1437.0384    
    950000   399.96319     -1.320234e+08   1045.8575      1437.0527    
    951000   400.00171     -1.3202341e+08  1032.7807      1437.0669    
    952000   399.97448     -1.3202331e+08  1036.8441      1437.0812    
    953000   399.96403     -1.3202327e+08  1030.6194      1437.0954    
    954000   400.02313     -1.3202355e+08  1033.0684      1437.1097    
    955000   399.98732     -1.3202338e+08  1026.3758      1437.1239    
    956000   399.9407      -1.3202287e+08  1031.9674      1437.1381    
    957000   400.00827     -1.3202358e+08  1030.3003      1437.1524    
    958000   400.03155     -1.3202365e+08  1023.0411      1437.1666    
    959000   399.95302     -1.3202355e+08  1015.5585      1437.1809    
    960000   399.96291     -1.320235e+08   1017.2756      1437.1951    
    961000   399.96953     -1.3202343e+08  1016.3641      1437.2094    
    962000   399.97521     -1.3202321e+08  1023.8619      1437.2236    
    963000   399.98703     -1.32023e+08    1016.4845      1437.2378    
    964000   400.0693      -1.320229e+08   1015.6904      1437.2521    
    965000   399.98377     -1.3202273e+08  1016.5389      1437.2663    
    966000   399.88657     -1.3202263e+08  1005.0116      1437.2806    
    967000   400.00791     -1.3202285e+08  1006.4418      1437.2948    
    968000   400.03202     -1.3202314e+08  999.31345      1437.3091    
    969000   399.98611     -1.3202297e+08  998.10702      1437.3233    
    970000   399.94337     -1.3202266e+08  999.08335      1437.3375    
    971000   399.92277     -1.3202244e+08  1003.1928      1437.3518    
    972000   399.97845     -1.3202276e+08  978.79656      1437.366     
    973000   399.98392     -1.320229e+08   975.14362      1437.3803    
    974000   399.96274     -1.3202276e+08  972.29587      1437.3945    
    975000   399.92067     -1.320227e+08   985.79563      1437.4087    
    976000   399.99552     -1.3202275e+08  975.1409       1437.423     
    977000   400.02323     -1.3202294e+08  977.9629       1437.4372    
    978000   399.99275     -1.3202242e+08  974.64905      1437.4515    
    979000   399.94791     -1.3202267e+08  966.0778       1437.4657    
    980000   399.95263     -1.320224e+08   966.62232      1437.48      
    981000   399.91748     -1.3202244e+08  954.05905      1437.4942    
    982000   399.94565     -1.3202233e+08  963.16032      1437.5084    
    983000   399.92877     -1.3202224e+08  955.8          1437.5227    
    984000   399.93345     -1.3202236e+08  956.67789      1437.5369    
    985000   400.00752     -1.3202241e+08  951.48262      1437.5512    
    986000   400.04825     -1.3202254e+08  950.56501      1437.5654    
    987000   400.04166     -1.3202244e+08  950.00654      1437.5797    
    988000   400.01142     -1.3202246e+08  950.22429      1437.5939    
    989000   399.9544      -1.3202228e+08  945.09516      1437.6081    
    990000   399.93425     -1.3202227e+08  932.68286      1437.6224    
    991000   399.92642     -1.3202208e+08  934.71704      1437.6366    
    992000   399.98426     -1.3202227e+08  935.19214      1437.6509    
    993000   399.9785      -1.3202214e+08  939.12722      1437.6651    
    994000   399.94274     -1.3202204e+08  937.90428      1437.6794    
    995000   400.04553     -1.3202223e+08  938.90489      1437.6936    
    996000   400.00588     -1.3202185e+08  927.56373      1437.7078    
    997000   400.0162      -1.320219e+08   922.49393      1437.7221    
    998000   399.92058     -1.3202167e+08  920.0525       1437.7363    
    999000   399.96431     -1.320221e+08   919.3286       1437.7506    
   1000000   399.98155     -1.3202198e+08  919.48754      1437.7648    
   1001000   399.99766     -1.3202174e+08  917.33695      1437.7791    
   1002000   399.96964     -1.3202192e+08  908.2298       1437.7933    
   1003000   399.94076     -1.3202147e+08  908.83823      1437.8075    
   1004000   399.9939      -1.3202199e+08  905.90325      1437.8218    
   1005000   399.94003     -1.320219e+08   901.56745      1437.836     
   1006000   399.94017     -1.3202221e+08  896.39265      1437.8503    
   1007000   399.95697     -1.3202211e+08  895.80685      1437.8645    
   1008000   399.85171     -1.3202165e+08  895.54646      1437.8787    
   1009000   399.99865     -1.320222e+08   890.62598      1437.893     
   1010000   399.91256     -1.3202162e+08  892.40526      1437.9072    
   1011000   399.86331     -1.3202134e+08  883.89335      1437.9215    
   1012000   399.96156     -1.3202129e+08  872.4154       1437.9357    
   1013000   399.98168     -1.3202139e+08  875.41125      1437.95      
   1014000   399.93519     -1.3202132e+08  888.56445      1437.9642    
   1015000   399.96388     -1.3202173e+08  880.01656      1437.9784    
   1016000   400.03235     -1.3202163e+08  877.81091      1437.9927    
   1017000   400.06137     -1.3202154e+08  871.75985      1438.0069    
   1018000   400.04863     -1.3202161e+08  869.02368      1438.0212    
   1019000   399.91304     -1.3202099e+08  868.08128      1438.0354    
   1020000   399.99673     -1.3202122e+08  866.97119      1438.0497    
   1021000   400.06839     -1.3202154e+08  863.08864      1438.0639    
   1022000   399.9543      -1.3202115e+08  860.47567      1438.0781    
   1023000   399.96192     -1.3202112e+08  857.63721      1438.0924    
   1024000   400.01123     -1.3202157e+08  857.38802      1438.1066    
   1025000   399.93797     -1.3202128e+08  851.17408      1438.1209    
   1026000   399.98849     -1.3202111e+08  842.92355      1438.1351    
   1027000   400.02369     -1.3202089e+08  841.04724      1438.1494    
   1028000   399.95397     -1.3202099e+08  836.66735      1438.1636    
   1029000   399.91392     -1.3202117e+08  834.7757       1438.1778    
   1030000   400.0197      -1.3202081e+08  849.24246      1438.1921    
   1031000   399.93904     -1.3202077e+08  846.2779       1438.2063    
   1032000   400.0247      -1.3202089e+08  837.13431      1438.2206    
   1033000   400.06567     -1.320206e+08   833.60343      1438.2348    
   1034000   400.03443     -1.3202098e+08  821.00222      1438.249     
   1035000   399.95545     -1.3202055e+08  819.21237      1438.2633    
   1036000   399.90038     -1.3202007e+08  825.16261      1438.2775    
[...]
   3894000   399.95661     -1.3180942e+08 -5161.2453      1478.9822    
   3895000   400.00786     -1.3180926e+08 -5159.8079      1478.9964    
   3896000   400.0903      -1.3180909e+08 -5150.9536      1479.0106    
   3897000   399.99984     -1.3180856e+08 -5137.871       1479.0249    
   3898000   399.98821     -1.318089e+08  -5146.4252      1479.0391    
   3899000   400.03943     -1.3180877e+08 -5153.9951      1479.0534    
   3900000   400.07418     -1.3180867e+08 -5161.1919      1479.0676    
   3901000   400.00318     -1.3180852e+08 -5162.637       1479.0819    
   3902000   399.98191     -1.318083e+08  -5159.4752      1479.0961    
   3903000   400.0691      -1.3180862e+08 -5163.8365      1479.1103    
   3904000   400.00725     -1.3180844e+08 -5158.0648      1479.1246    
   3905000   399.93731     -1.3180831e+08 -5154.881       1479.1388    
   3906000   400.07793     -1.3180865e+08 -5151.2767      1479.1531    
   3907000   399.92794     -1.3180778e+08 -5160.1102      1479.1673    
   3908000   399.94856     -1.3180787e+08 -5165.4917      1479.1815    
   3909000   399.94678     -1.318077e+08  -5176.9464      1479.1958    
   3910000   399.97251     -1.3180776e+08 -5178.7043      1479.21      
   3911000   399.97698     -1.31808e+08   -5173.454       1479.2243    
   3912000   400.01604     -1.3180794e+08 -5167.7409      1479.2385    
   3913000   399.98824     -1.3180734e+08 -5172.5904      1479.2528    
   3914000   400.03423     -1.3180729e+08 -5179.212       1479.267     
   3915000   400.03554     -1.3180723e+08 -5182.1831      1479.2812    
   3916000   399.9879      -1.3180697e+08 -5189.5361      1479.2955    
   3917000   400.0463      -1.3180659e+08 -5181.1344      1479.3097    
   3918000   399.98046     -1.3180692e+08 -5185.8296      1479.324     
   3919000   399.97271     -1.3180674e+08 -5184.8037      1479.3382    
   3920000   399.92188     -1.3180644e+08 -5192.8847      1479.3525    
   3921000   399.98569     -1.3180621e+08 -5190.8019      1479.3667    
   3922000   400.00822     -1.3180615e+08 -5197.0703      1479.3809    
   3923000   399.9445      -1.3180592e+08 -5199.042       1479.3952    
   3924000   400.06889     -1.318063e+08  -5197.6518      1479.4094    
   3925000   400.0695      -1.318058e+08  -5199.3211      1479.4237    
   3926000   400.024       -1.3180558e+08 -5198.1532      1479.4379    
   3927000   400.06942     -1.3180598e+08 -5207.2968      1479.4522    
   3928000   400.04272     -1.3180569e+08 -5205.2073      1479.4664    
   3929000   399.99126     -1.3180548e+08 -5205.6959      1479.4806    
   3930000   400.01089     -1.3180539e+08 -5197.258       1479.4949    
   3931000   400.00883     -1.3180543e+08 -5198.9202      1479.5091    
   3932000   399.98781     -1.3180536e+08 -5198.249       1479.5234    
   3933000   399.91084     -1.3180509e+08 -5205.0615      1479.5376    
   3934000   400.0366      -1.3180551e+08 -5207.6005      1479.5519    
   3935000   400.07372     -1.3180545e+08 -5213.9271      1479.5661    
   3936000   400.0077      -1.3180495e+08 -5206.7092      1479.5803    
   3937000   400.01323     -1.3180457e+08 -5206.2905      1479.5946    
   3938000   400.00816     -1.31805e+08   -5203.0064      1479.6088    
   3939000   399.95541     -1.3180417e+08 -5219.2365      1479.6231    
   3940000   399.95979     -1.3180435e+08 -5230.5655      1479.6373    
   3941000   399.95583     -1.3180433e+08 -5239.1241      1479.6515    
   3942000   399.9871      -1.318045e+08  -5233.202       1479.6658    
   3943000   399.98453     -1.3180425e+08 -5226.3863      1479.68      
   3944000   399.91778     -1.3180371e+08 -5215.3477      1479.6943    
   3945000   399.94235     -1.3180385e+08 -5218.3436      1479.7085    
   3946000   399.93046     -1.3180411e+08 -5222.5967      1479.7228    
   3947000   399.95935     -1.3180393e+08 -5230.6638      1479.737     
   3948000   399.97612     -1.3180381e+08 -5231.3366      1479.7512    
   3949000   399.95768     -1.3180371e+08 -5224.7657      1479.7655    
   3950000   399.94483     -1.3180345e+08 -5226.3892      1479.7797    
   3951000   400.01285     -1.3180366e+08 -5236.9568      1479.794     
   3952000   400.00757     -1.3180375e+08 -5240.0865      1479.8082    
   3953000   399.91503     -1.3180317e+08 -5237.3918      1479.8225    
   3954000   399.90917     -1.3180314e+08 -5233.2463      1479.8367    
   3955000   399.98007     -1.3180305e+08 -5227.9909      1479.8509    
   3956000   400.01697     -1.3180307e+08 -5233.1985      1479.8652    
   3957000   399.9833      -1.3180281e+08 -5250.3019      1479.8794    
   3958000   399.98792     -1.3180289e+08 -5254.2729      1479.8937    
   3959000   399.92968     -1.3180264e+08 -5257.8177      1479.9079    
   3960000   399.90237     -1.3180216e+08 -5248.1985      1479.9222    
   3961000   399.98126     -1.3180214e+08 -5255.4049      1479.9364    
   3962000   399.98021     -1.3180223e+08 -5249.5877      1479.9506    
   3963000   400.04883     -1.3180217e+08 -5253.8046      1479.9649    
   3964000   400.0217      -1.3180197e+08 -5253.2425      1479.9791    
   3965000   399.99869     -1.3180196e+08 -5263.9103      1479.9934    
   3966000   399.99413     -1.3180148e+08 -5266.0679      1480.0076    
   3967000   400.02996     -1.3180139e+08 -5267.0962      1480.0218    
   3968000   400.01703     -1.3180151e+08 -5265.0651      1480.0361    
   3969000   399.98191     -1.3180141e+08 -5263.4782      1480.0503    
   3970000   400.02607     -1.3180161e+08 -5258.2274      1480.0646    
   3971000   399.91807     -1.3180121e+08 -5256.9653      1480.0788    
   3972000   399.95197     -1.3180135e+08 -5265.6726      1480.0931    
   3973000   399.90233     -1.3180091e+08 -5276.2113      1480.1073    
   3974000   399.93223     -1.3180073e+08 -5283.3358      1480.1215    
   3975000   400.04909     -1.3180054e+08 -5280.8057      1480.1358    
   3976000   400.12134     -1.3180067e+08 -5268.5844      1480.15      
   3977000   400.04703     -1.3180062e+08 -5265.4998      1480.1643    
   3978000   400.01445     -1.3180051e+08 -5268.7737      1480.1785    
   3979000   399.9043      -1.3180026e+08 -5275.5702      1480.1928    
   3980000   399.81646     -1.318e+08     -5281.7741      1480.207     
   3981000   399.90871     -1.3180018e+08 -5286.0746      1480.2212    
   3982000   399.99347     -1.3180054e+08 -5286.4253      1480.2355    
   3983000   399.89799     -1.317999e+08  -5279.7011      1480.2497    
   3984000   400.02325     -1.3180021e+08 -5280.5717      1480.264     
   3985000   400.04089     -1.3179984e+08 -5285.4029      1480.2782    
   3986000   400.04729     -1.3179909e+08 -5291.6044      1480.2925    
   3987000   400.07088     -1.3179906e+08 -5296.8636      1480.3067    
   3988000   400.01148     -1.3179875e+08 -5299.2551      1480.3209    
   3989000   400.00365     -1.3179916e+08 -5296.9133      1480.3352    
   3990000   399.95076     -1.3179885e+08 -5288.3427      1480.3494    
   3991000   400.00247     -1.3179899e+08 -5296.7542      1480.3637    
   3992000   400.02474     -1.3179887e+08 -5299.4622      1480.3779    
   3993000   400.00788     -1.3179883e+08 -5306.5591      1480.3921    
   3994000   399.9769      -1.3179876e+08 -5314.5216      1480.4064    
   3995000   399.95819     -1.3179854e+08 -5316.9147      1480.4206    
   3996000   399.97663     -1.3179798e+08 -5301.9352      1480.4349    
   3997000   399.98574     -1.31798e+08   -5292.5442      1480.4491    
   3998000   400.10912     -1.3179846e+08 -5295.9973      1480.4634    
   3999000   400.06239     -1.3179797e+08 -5302.7311      1480.4776    
   4000000   400.0313      -1.3179802e+08 -5317.8859      1480.4918    
   4001000   400.14024     -1.317979e+08  -5316.8112      1480.5061    
   4002000   400.09753     -1.3179763e+08 -5306.9026      1480.5203    
   4003000   400.06564     -1.3179778e+08 -5301.9948      1480.5346    
   4004000   399.99868     -1.3179746e+08 -5308.6903      1480.5488    
   4005000   400.01244     -1.3179746e+08 -5322.5667      1480.5631    
   4006000   399.98021     -1.3179727e+08 -5327.3622      1480.5773    
   4007000   400.04817     -1.3179732e+08 -5331.1922      1480.5915    
   4008000   399.93457     -1.3179709e+08 -5324.0289      1480.6058    
   4009000   399.9754      -1.3179683e+08 -5322.1266      1480.62      
   4010000   399.99169     -1.3179676e+08 -5328.5035      1480.6343    
   4011000   400.0481      -1.3179668e+08 -5344.6269      1480.6485    
   4012000   399.9375      -1.3179644e+08 -5345.8516      1480.6628    
   4013000   400.02635     -1.3179685e+08 -5341.174       1480.677     
   4014000   399.99272     -1.3179657e+08 -5334.0786      1480.6912    
   4015000   399.97033     -1.3179656e+08 -5336.7969      1480.7055    
   4016000   399.99724     -1.3179624e+08 -5338.9066      1480.7197    
   4017000   399.91905     -1.3179627e+08 -5341.9803      1480.734     
   4018000   399.9021      -1.3179573e+08 -5338.1007      1480.7482    
   4019000   399.96507     -1.3179576e+08 -5336.3161      1480.7625    
   4020000   399.97548     -1.3179564e+08 -5345.8823      1480.7767    
   4021000   399.98021     -1.3179515e+08 -5341.972       1480.7909    
   4022000   399.94997     -1.3179548e+08 -5354.2003      1480.8052    
   4023000   400.06229     -1.3179521e+08 -5346.3034      1480.8194    
   4024000   400.00629     -1.3179462e+08 -5349.6748      1480.8337    
   4025000   400.05408     -1.3179515e+08 -5349.621       1480.8479    
   4026000   399.9415      -1.3179467e+08 -5347.6315      1480.8621    
   4027000   400.02876     -1.3179494e+08 -5363.3359      1480.8764    
   4028000   399.95896     -1.3179419e+08 -5366.6782      1480.8906    
   4029000   400.00242     -1.3179429e+08 -5365.0334      1480.9049    
   4030000   400.0425      -1.3179436e+08 -5359.4922      1480.9191    
   4031000   400.02393     -1.3179421e+08 -5358.9355      1480.9334    
   4032000   400.06946     -1.317946e+08  -5360.3775      1480.9476    
   4033000   399.97664     -1.3179378e+08 -5363.846       1480.9618    
   4034000   399.99979     -1.3179386e+08 -5372.5152      1480.9761    
   4035000   400.03663     -1.3179364e+08 -5381.781       1480.9903    
   4036000   400.03322     -1.3179379e+08 -5379.3604      1481.0046    
   4037000   400.00498     -1.3179333e+08 -5367.9858      1481.0188    
   4038000   400.05433     -1.3179365e+08 -5359.0857      1481.0331    
   4039000   400.03709     -1.3179385e+08 -5361.4029      1481.0473    
   4040000   400.02361     -1.3179365e+08 -5363.9764      1481.0615    
   4041000   400.02302     -1.317942e+08  -5369.465       1481.0758    
   4042000   399.98352     -1.3179366e+08 -5367.1772      1481.09      
   4043000   399.95607     -1.3179312e+08 -5384.5335      1481.1043    
   4044000   399.97872     -1.3179327e+08 -5390.2043      1481.1185    
   4045000   399.90448     -1.3179292e+08 -5391.4967      1481.1328    
   4046000   399.95033     -1.3179292e+08 -5381.1113      1481.147     
   4047000   399.91385     -1.3179282e+08 -5388.3032      1481.1612    
   4048000   399.93998     -1.3179321e+08 -5383.2996      1481.1755    
   4049000   399.89789     -1.3179329e+08 -5392.5107      1481.1897    
   4050000   399.89606     -1.3179285e+08 -5387.6347      1481.204     
   4051000   399.93904     -1.3179251e+08 -5392.6449      1481.2182    
   4052000   399.93931     -1.3179246e+08 -5403.8211      1481.2324    
   4053000   399.95982     -1.3179217e+08 -5406.1268      1481.2467    
   4054000   399.94448     -1.3179181e+08 -5395.4299      1481.2609    
   4055000   400.00253     -1.317922e+08  -5392.3982      1481.2752    
   4056000   399.98868     -1.3179215e+08 -5383.7254      1481.2894    
   4057000   399.98529     -1.3179206e+08 -5397.3926      1481.3037    
   4058000   400.03784     -1.3179176e+08 -5411.0219      1481.3179    
   4059000   399.95976     -1.3179123e+08 -5418.2709      1481.3321    
   4060000   399.97072     -1.3179126e+08 -5406.9729      1481.3464    
   4061000   399.99891     -1.3179118e+08 -5396.7129      1481.3606    
   4062000   399.97101     -1.3179142e+08 -5398.667       1481.3749    
   4063000   400.05055     -1.3179127e+08 -5419.0313      1481.3891    
   4064000   399.96547     -1.3179089e+08 -5410.4234      1481.4034    
   4065000   399.94592     -1.3179065e+08 -5416.9749      1481.4176    
   4066000   399.90708     -1.3179101e+08 -5414.1587      1481.4318    
   4067000   399.91223     -1.31791e+08   -5414.2308      1481.4461    
   4068000   399.92266     -1.317908e+08  -5410.8712      1481.4603    
   4069000   399.91348     -1.317904e+08  -5419.3908      1481.4746    
   4070000   399.9684      -1.3179033e+08 -5420.1697      1481.4888    
   4071000   400.01304     -1.3179e+08    -5421.9327      1481.5031    
   4072000   399.96254     -1.3178964e+08 -5419.394       1481.5173    
   4073000   400.05268     -1.3178991e+08 -5427.4193      1481.5315    
   4074000   400.03375     -1.3179012e+08 -5422.3827      1481.5458    
   4075000   399.99706     -1.3178959e+08 -5429.015       1481.56      
   4076000   399.95472     -1.3178891e+08 -5423.2132      1481.5743    
   4077000   399.95913     -1.3178931e+08 -5435.6298      1481.5885    
   4078000   399.99803     -1.3178924e+08 -5431.082       1481.6027    
   4079000   400.05401     -1.3178901e+08 -5429.7764      1481.617     
   4080000   400.02772     -1.3178844e+08 -5429.7465      1481.6312    
   4081000   400.03139     -1.3178892e+08 -5442.3196      1481.6455    
   4082000   400.01648     -1.3178878e+08 -5446.9846      1481.6597    
   4083000   400.01775     -1.3178839e+08 -5446.1151      1481.674     
   4084000   399.91711     -1.3178868e+08 -5451.0248      1481.6882    
   4085000   400.00976     -1.3178867e+08 -5448.7689      1481.7024    
   4086000   399.89387     -1.3178817e+08 -5435.807       1481.7167    
   4087000   399.96251     -1.3178845e+08 -5443.6447      1481.7309    
   4088000   399.99709     -1.3178838e+08 -5450.3156      1481.7452    
   4089000   399.9232      -1.3178813e+08 -5458.1937      1481.7594    
   4090000   399.96321     -1.3178806e+08 -5460.2391      1481.7737    
   4091000   399.95939     -1.3178814e+08 -5449.8927      1481.7879    
   4092000   399.9869      -1.3178806e+08 -5446.9859      1481.8021    
   4093000   399.9801      -1.3178764e+08 -5450.2747      1481.8164    
   4094000   400.02484     -1.3178737e+08 -5460.1467      1481.8306    
   4095000   400.00036     -1.3178717e+08 -5459.7925      1481.8449    
   4096000   399.97521     -1.3178696e+08 -5458.9599      1481.8591    
   4097000   400.05436     -1.3178698e+08 -5459.8824      1481.8734    
   4098000   400.02099     -1.3178686e+08 -5464.7192      1481.8876    
   4099000   399.99975     -1.3178648e+08 -5472.8282      1481.9018    
   4100000   399.99702     -1.3178675e+08 -5473.4991      1481.9161    
   4101000   399.94859     -1.3178676e+08 -5469.5218      1481.9303    
   4102000   399.91931     -1.3178648e+08 -5468.9464      1481.9446    
   4103000   399.98959     -1.3178668e+08 -5470.9237      1481.9588    
   4104000   399.92245     -1.3178632e+08 -5472.2546      1481.973     
   4105000   400.02284     -1.3178626e+08 -5479.4498      1481.9873    
   4106000   400.00713     -1.3178625e+08 -5487.9305      1482.0015    
   4107000   400.02349     -1.3178597e+08 -5473.6016      1482.0158    
   4108000   399.93509     -1.3178558e+08 -5466.266       1482.03      
   4109000   399.96113     -1.31786e+08   -5476.317       1482.0443    
   4110000   399.83961     -1.3178541e+08 -5485.9994      1482.0585    
   4111000   399.94773     -1.3178573e+08 -5488.384       1482.0727    
   4112000   399.97559     -1.3178565e+08 -5491.9814      1482.087     
   4113000   399.97868     -1.3178578e+08 -5490.0584      1482.1012    
   4114000   399.923       -1.3178554e+08 -5484.2761      1482.1155    
   4115000   399.90832     -1.3178512e+08 -5485.9557      1482.1297    
   4116000   399.96039     -1.317848e+08  -5493.4783      1482.144     
   4117000   399.98839     -1.3178485e+08 -5495.1925      1482.1582    
   4118000   399.9974      -1.3178463e+08 -5505.9438      1482.1724    
   4119000   400.04688     -1.3178479e+08 -5496.8374      1482.1867    
   4120000   400.01915     -1.3178507e+08 -5496.6702      1482.2009    
   4121000   399.95381     -1.317847e+08  -5492.892       1482.2152    
   4122000   399.93325     -1.3178465e+08 -5501.2765      1482.2294    
   4123000   399.8796      -1.317844e+08  -5509.2172      1482.2437    
   4124000   399.9014      -1.3178374e+08 -5509.5135      1482.2579    
   4125000   399.93195     -1.317839e+08  -5512.3434      1482.2721    
   4126000   399.94589     -1.3178397e+08 -5511.2221      1482.2864    
   4127000   399.98074     -1.3178387e+08 -5515.1247      1482.3006    
   4128000   399.96595     -1.3178361e+08 -5505.6408      1482.3149    
   4129000   400.02751     -1.3178353e+08 -5514.5305      1482.3291    
   4130000   399.90787     -1.3178288e+08 -5515.8689      1482.3434    
   4131000   399.88063     -1.3178309e+08 -5522.2396      1482.3576    
   4132000   399.91744     -1.3178261e+08 -5516.3096      1482.3718    
   4133000   400.0653      -1.3178278e+08 -5520.9166      1482.3861    
   4134000   400.06613     -1.3178268e+08 -5508.3982      1482.4003    
   4135000   399.95309     -1.3178288e+08 -5514.619       1482.4146    
   4136000   399.92898     -1.3178236e+08 -5513.2686      1482.4288    
   4137000   399.95419     -1.3178254e+08 -5521.6675      1482.443     
   4138000   399.94025     -1.3178217e+08 -5524.1126      1482.4573    
   4139000   399.95358     -1.317818e+08  -5531.5319      1482.4715    
   4140000   400.04187     -1.3178237e+08 -5539.0073      1482.4858    
   4141000   399.93894     -1.3178172e+08 -5530.4233      1482.5       
   4142000   399.93648     -1.3178184e+08 -5541.1594      1482.5143    
   4143000   399.98809     -1.3178163e+08 -5537.9925      1482.5285    
   4144000   400.04158     -1.3178173e+08 -5537.7291      1482.5427    
   4145000   400.03314     -1.3178156e+08 -5528.2528      1482.557     
   4146000   400.01841     -1.3178144e+08 -5536.6629      1482.5712    
   4147000   400.00016     -1.3178113e+08 -5535.7876      1482.5855    
   4148000   399.98313     -1.317813e+08  -5555.8326      1482.5997    
   4149000   400.02338     -1.3178134e+08 -5545.2889      1482.614     
   4150000   400.09738     -1.3178128e+08 -5543.6813      1482.6282    
   4151000   400.07145     -1.3178103e+08 -5534.6228      1482.6424    
   4152000   400.04469     -1.3178075e+08 -5535.0475      1482.6567    
   4153000   400.00414     -1.3178052e+08 -5534.2043      1482.6709    
   4154000   399.96761     -1.3178089e+08 -5552.5589      1482.6852    
   4155000   399.995       -1.3178076e+08 -5542.9198      1482.6994    
   4156000   399.93001     -1.3178033e+08 -5547.3971      1482.7137    
   4157000   399.97913     -1.3178104e+08 -5551.4842      1482.7279    
   4158000   399.93726     -1.3178025e+08 -5558.3735      1482.7421    
   4159000   400.00473     -1.317797e+08  -5557.0292      1482.7564    
   4160000   400.05209     -1.3177998e+08 -5571.7811      1482.7706    
   4161000   400.08138     -1.3177969e+08 -5558.4438      1482.7849    
   4162000   400.04568     -1.3177959e+08 -5554.7274      1482.7991    
   4163000   400.03218     -1.3177931e+08 -5543.0472      1482.8133    
   4164000   399.99144     -1.3177954e+08 -5564.3391      1482.8276    
   4165000   399.99112     -1.3177936e+08 -5573.3533      1482.8418    
   4166000   400.0655      -1.3177907e+08 -5580.051       1482.8561    
   4167000   399.99873     -1.3177871e+08 -5573.2408      1482.8703    
   4168000   400.00473     -1.3177832e+08 -5565.2458      1482.8846    
   4169000   400.00962     -1.317789e+08  -5561.8154      1482.8988    
   4170000   399.99463     -1.3177848e+08 -5564.9581      1482.913     
